                         Program Version 4.0.0.2 - RELEASE -
|  1> ! WB97X-D3 6-31G(d) VerySlowConv
|  2> ! KDIIS NOSOSCF
|  3> %base "Scan_1"
|  4>
|  5> %scf
|  6> maxiter 999
|  7> end
|  8>
|  9> * xyz 0 1
| 10> C          1.525204278634   -2.849829375783   -0.000000000000
| 11> H          2.373259289908   -2.914752980935   -0.000000000000
| 12> C          0.920052848458   -1.588036450810    0.000000000000
| 13> H          1.400306532511   -0.886061446686    0.000000000000
| 14> C         -0.475267271998   -1.481216661903   -0.000000000000
| 15> H         -0.843068564833   -0.714317223401   -0.000000000000
| 16> C         -1.265435746577   -2.636189112277   -0.000000000000
| 17> H         -2.113490862705   -2.571265241712   -0.000000000000
| 18> C         -0.660285081683   -3.897981514543    0.000000000000
| 19> H         -1.140537781328   -4.599957292975    0.000000000000
| 20> C          0.735034844727   -4.004801982590   -0.000000000000
| 21> H          1.102837514886   -4.771700716385   -0.000000000000
| 22> **                         ****END OF INPUT****

CARTESIAN COORDINATES (ANGSTROEM)
---------------------------------
  C      1.525204   -2.849829   -0.000000
  H      2.373259   -2.914753   -0.000000
  C      0.920053   -1.588036    0.000000
  H      1.400307   -0.886061    0.000000
  C     -0.475267   -1.481217   -0.000000
  H     -0.843069   -0.714317   -0.000000
  C     -1.265436   -2.636189   -0.000000
  H     -2.113491   -2.571265   -0.000000
  C     -0.660285   -3.897982    0.000000
  H     -1.140538   -4.599957    0.000000
  C      0.735035   -4.004802   -0.000000
  H      1.102838   -4.771701   -0.000000

 Total Charge           Charge          ....    0
 Multiplicity           Mult            ....    1
 Number of Electrons    NEL             ....   42
 Basis Dimension        Dim             ....   96

ORBITAL ENERGIES
----------------

  NO   OCC          E(Eh)            E(eV)
   0   2.0000     -10.253922      -279.0234
   1   2.0000     -10.253801      -279.0201
   2   2.0000     -10.253628      -279.0154
   3   2.0000     -10.253297      -279.0064
   4   2.0000     -10.253159      -279.0026
   5   2.0000     -10.253025      -278.9990
   6   2.0000      -0.968371       -26.3507
   7   2.0000      -0.877183       -23.8694
   8   2.0000      -0.877123       -23.8677
   9   2.0000      -0.746740       -20.3198
  10   2.0000      -0.746647       -20.3173
  11   2.0000      -0.666703       -18.1419
  12   2.0000      -0.635832       -17.3019
  13   2.0000      -0.540415       -14.7055
  14   2.0000      -0.540207       -14.6998
  15   2.0000      -0.531038       -14.4503
  16   2.0000      -0.456444       -12.4205
  17   2.0000      -0.449195       -12.2232
  18   2.0000      -0.448866       -12.2143
  19   2.0000      -0.326197        -8.8763
  20   2.0000      -0.326129        -8.8744
  21   0.0000       0.083096         2.2611
  22   0.0000       0.083312         2.2670
  23   0.0000       0.258405         7.0316
  24   0.0000       0.259778         7.0689
  25   0.0000       0.293112         7.9760

MULLIKEN ATOMIC CHARGES
-----------------------
   0 C :   -0.114095
   1 H :    0.113415
   2 C :   -0.109251
   3 H :    0.111155
   4 C :   -0.111083
   5 H :    0.109860
   6 C :   -0.114095
   7 H :    0.113415
   8 C :   -0.109251
   9 H :    0.111155
  10 C :   -0.111083
  11 H :    0.109860
Sum of atomic charges:   -0.0000000

LOEWDIN ATOMIC CHARGES
----------------------
   0 C :   -0.133919
   1 H :    0.133787
   2 C :   -0.132896
   3 H :    0.133222
   4 C :   -0.133044
   5 H :    0.132849
   6 C :   -0.133919
   7 H :    0.133787
   8 C :   -0.132896
   9 H :    0.133222
  10 C :   -0.133044
  11 H :    0.132848

  Mayer bond orders larger than 0.1
B(  0-C ,  1-H ) :   0.9484 B(  0-C ,  2-C ) :   1.4729 B(  0-C , 10-C ) :   1.4741
B(  2-C ,  3-H ) :   0.9484 B(  2-C ,  4-C ) :   1.4754 B(  4-C ,  5-H ) :   0.9487
B(  4-C ,  6-C ) :   1.4741 B(  6-C ,  7-H ) :   0.9484 B(  6-C ,  8-C ) :   1.4729
B(  8-C ,  9-H ) :   0.9484 B(  8-C , 10-C ) :   1.4754 B( 10-C , 11-H ) :   0.9487

Dispersion correction           -0.002211462
FINAL SINGLE POINT ENERGY      -231.813905343197

DIPOLE MOMENT
-------------
                                X             Y             Z
Electronic contribution:     -0.00000      -0.00000      -0.00000
Nuclear contribution   :      0.00000       0.00000       0.00000
                        -----------------------------------------
Total Dipole Moment    :     -0.00000       0.00000      -0.00000
                        -----------------------------------------
Magnitude (a.u.)       :      0.00000
Magnitude (Debye)      :      0.00000

                             ****ORCA TERMINATED NORMALLY****
TOTAL RUN TIME: 0 days 0 hours 0 minutes 38 seconds 32 msec
