                         Program Version 4.0.0.2 - RELEASE -
|  1> ! WB97X-D3 6-31G(d) VerySlowConv
|  2> ! KDIIS NOSOSCF
|  3> %base "Scan_10"
|  4>
|  5> %scf
|  6> maxiter 999
|  7> end
|  8>
|  9> * xyz 0 1
| 10> C          1.499942403636   -2.847895364639   -0.000000151055
| 11> H          2.834624632795   -2.950073321399    0.000000105267
| 12> C          0.905747405922   -1.608947034220   -0.000000326342
| 13> H          1.661577208629   -0.504167284568    0.000000415250
| 14> C         -0.464310828786   -1.504060822991    0.000000281874
| 15> H         -1.043163259252   -0.297103141205   -0.000000373843
| 16> C         -1.240174071213   -2.638122964636   -0.000000017123
| 17> H         -2.574856297625   -2.535945016213    0.000000040300
| 18> C         -0.645979057832   -3.877071310166   -0.000000290927
| 19> H         -1.401808890318   -4.981851036802    0.000000390834
| 20> C          0.724079182131   -3.981957500271    0.000000307524
| 21> H          1.302931571911   -5.188915202892   -0.000000381758
| 22> **                         ****END OF INPUT****

CARTESIAN COORDINATES (ANGSTROEM)
---------------------------------
  C      1.499942   -2.847895   -0.000000
  H      2.834625   -2.950073    0.000000
  C      0.905747   -1.608947   -0.000000
  H      1.661577   -0.504167    0.000000
  C     -0.464311   -1.504061    0.000000
  H     -1.043163   -0.297103   -0.000000
  C     -1.240174   -2.638123   -0.000000
  H     -2.574856   -2.535945    0.000000
  C     -0.645979   -3.877071   -0.000000
  H     -1.401809   -4.981851    0.000000
  C      0.724079   -3.981958    0.000000
  H      1.302932   -5.188915   -0.000000

 Total Charge           Charge          ....    0
 Multiplicity           Mult            ....    1
 Number of Electrons    NEL             ....   42
 Basis Dimension        Dim             ....   96

ORBITAL ENERGIES
----------------

  NO   OCC          E(Eh)            E(eV)
   0   2.0000     -10.316166      -280.7171
   1   2.0000     -10.315941      -280.7110
   2   2.0000     -10.315900      -280.7099
   3   2.0000     -10.315379      -280.6957
   4   2.0000     -10.315335      -280.6945
   5   2.0000     -10.315111      -280.6885
   6   2.0000      -0.987684       -26.8762
   7   2.0000      -0.858554       -23.3624
   8   2.0000      -0.858526       -23.3617
   9   2.0000      -0.690996       -18.8030
  10   2.0000      -0.690842       -18.7988
  11   2.0000      -0.588609       -16.0169
  12   2.0000      -0.556072       -15.1315
  13   2.0000      -0.492390       -13.3986
  14   2.0000      -0.486948       -13.2505
  15   2.0000      -0.486706       -13.2439
  16   2.0000      -0.483073       -13.1451
  17   2.0000      -0.408853       -11.1255
  18   2.0000      -0.408626       -11.1193
  19   2.0000      -0.345406        -9.3990
  20   2.0000      -0.345257        -9.3949
  21   0.0000       0.080024         2.1776
  22   0.0000       0.080070         2.1788
  23   0.0000       0.084290         2.2937
  24   0.0000       0.153082         4.1656
  25   0.0000       0.153206         4.1689

MULLIKEN ATOMIC CHARGES
-----------------------
   0 C :   -0.140231
   1 H :    0.140184
   2 C :   -0.141139
   3 H :    0.140768
   4 C :   -0.140024
   5 H :    0.140442
   6 C :   -0.140231
   7 H :    0.140184
   8 C :   -0.141139
   9 H :    0.140768
  10 C :   -0.140024
  11 H :    0.140442
Sum of atomic charges:    0.0000000

LOEWDIN ATOMIC CHARGES
----------------------
   0 C :   -0.118998
   1 H :    0.119021
   2 C :   -0.119506
   3 H :    0.119301
   4 C :   -0.119061
   5 H :    0.119243
   6 C :   -0.118998
   7 H :    0.119021
   8 C :   -0.119506
   9 H :    0.119301
  10 C :   -0.119061
  11 H :    0.119243

  Mayer bond orders larger than 0.1
B(  0-C ,  1-H ) :   0.9295 B(  0-C ,  2-C ) :   1.4542 B(  0-C , 10-C ) :   1.4539
B(  2-C ,  3-H ) :   0.9296 B(  2-C ,  4-C ) :   1.4523 B(  4-C ,  5-H ) :   0.9298
B(  4-C ,  6-C ) :   1.4539 B(  6-C ,  7-H ) :   0.9295 B(  6-C ,  8-C ) :   1.4542
B(  8-C ,  9-H ) :   0.9296 B(  8-C , 10-C ) :   1.4523 B( 10-C , 11-H ) :   0.9298

Dispersion correction           -0.002258409
FINAL SINGLE POINT ENERGY      -232.011153157434

DIPOLE MOMENT
-------------
                                X             Y             Z
Electronic contribution:      0.00000       0.00000      -0.00000
Nuclear contribution   :     -0.00000      -0.00000       0.00000
                        -----------------------------------------
Total Dipole Moment    :      0.00000       0.00000       0.00000
                        -----------------------------------------
Magnitude (a.u.)       :      0.00000
Magnitude (Debye)      :      0.00000

                             ****ORCA TERMINATED NORMALLY****
TOTAL RUN TIME: 0 days 0 hours 0 minutes 41 seconds 594 msec
