                         Program Version 4.0.0.2 - RELEASE -
|  1> ! WB97X-D3 6-31G(d) VerySlowConv
|  2> ! KDIIS NOSOSCF
|  3> %base "Scan_11"
|  4>
|  5> %scf
|  6> maxiter 999
|  7> end
|  8>
|  9> * xyz 0 1
| 10> C          1.496485164086   -2.847630682125   -0.000000289113
| 11> H          2.928495852902   -2.957259741461    0.000000368182
| 12> C          0.903789609634   -1.611808779344   -0.000000703184
| 13> H          1.714736388120   -0.426465596941    0.000000808611
| 14> C         -0.462811372268   -1.507187197091   -0.000000196125
| 15> H         -1.083875310779   -0.212215111880   -0.000000176267
| 16> C         -1.236716827308   -2.638387628597   -0.000000392950
| 17> H         -2.668727506397   -2.528758618605    0.000000409084
| 18> C         -0.644021188552   -3.874209612684   -0.000000296772
| 19> H         -1.454968147257   -5.059552661248    0.000000607521
| 20> C          0.722579821613   -3.978831081273    0.000000291815
| 21> H          1.343643516203   -5.273803288751   -0.000000430802
| 22> **                         ****END OF INPUT****

CARTESIAN COORDINATES (ANGSTROEM)
---------------------------------
  C      1.496485   -2.847631   -0.000000
  H      2.928496   -2.957260    0.000000
  C      0.903790   -1.611809   -0.000001
  H      1.714736   -0.426466    0.000001
  C     -0.462811   -1.507187   -0.000000
  H     -1.083875   -0.212215   -0.000000
  C     -1.236717   -2.638388   -0.000000
  H     -2.668728   -2.528759    0.000000
  C     -0.644021   -3.874210   -0.000000
  H     -1.454968   -5.059553    0.000001
  C      0.722580   -3.978831    0.000000
  H      1.343644   -5.273803   -0.000000

 Total Charge           Charge          ....    0
 Multiplicity           Mult            ....    1
 Number of Electrons    NEL             ....   42
 Basis Dimension        Dim             ....   96

ORBITAL ENERGIES
----------------

  NO   OCC          E(Eh)            E(eV)
   0   2.0000     -10.328436      -281.0510
   1   2.0000     -10.328236      -281.0456
   2   2.0000     -10.328123      -281.0425
   3   2.0000     -10.327653      -281.0297
   4   2.0000     -10.327532      -281.0264
   5   2.0000     -10.327335      -281.0211
   6   2.0000      -0.995510       -27.0892
   7   2.0000      -0.862045       -23.4574
   8   2.0000      -0.862029       -23.4570
   9   2.0000      -0.690057       -18.7774
  10   2.0000      -0.689872       -18.7724
  11   2.0000      -0.576312       -15.6823
  12   2.0000      -0.562851       -15.3160
  13   2.0000      -0.489689       -13.3251
  14   2.0000      -0.476419       -12.9640
  15   2.0000      -0.476193       -12.9579
  16   2.0000      -0.472168       -12.8483
  17   2.0000      -0.400195       -10.8899
  18   2.0000      -0.399958       -10.8834
  19   2.0000      -0.350941        -9.5496
  20   2.0000      -0.350807        -9.5459
  21   0.0000       0.049697         1.3523
  22   0.0000       0.077212         2.1011
  23   0.0000       0.077231         2.1016
  24   0.0000       0.119132         3.2418
  25   0.0000       0.119343         3.2475

MULLIKEN ATOMIC CHARGES
-----------------------
   0 C :   -0.123200
   1 H :    0.123434
   2 C :   -0.124553
   3 H :    0.124154
   4 C :   -0.123755
   5 H :    0.123919
   6 C :   -0.123200
   7 H :    0.123434
   8 C :   -0.124553
   9 H :    0.124154
  10 C :   -0.123755
  11 H :    0.123919
Sum of atomic charges:   -0.0000000

LOEWDIN ATOMIC CHARGES
----------------------
   0 C :   -0.108444
   1 H :    0.108532
   2 C :   -0.108972
   3 H :    0.108799
   4 C :   -0.108535
   5 H :    0.108620
   6 C :   -0.108444
   7 H :    0.108532
   8 C :   -0.108972
   9 H :    0.108799
  10 C :   -0.108535
  11 H :    0.108620

  Mayer bond orders larger than 0.1
B(  0-C ,  1-H ) :   0.9258 B(  0-C ,  2-C ) :   1.4538 B(  0-C , 10-C ) :   1.4534
B(  2-C ,  3-H ) :   0.9258 B(  2-C ,  4-C ) :   1.4524 B(  4-C ,  5-H ) :   0.9258
B(  4-C ,  6-C ) :   1.4534 B(  6-C ,  7-H ) :   0.9258 B(  6-C ,  8-C ) :   1.4538
B(  8-C ,  9-H ) :   0.9258 B(  8-C , 10-C ) :   1.4524 B( 10-C , 11-H ) :   0.9258

Dispersion correction           -0.002787272
FINAL SINGLE POINT ENERGY      -231.906076841732

DIPOLE MOMENT
-------------
                                X             Y             Z
Electronic contribution:      0.00000       0.00000      -0.00000
Nuclear contribution   :     -0.00000      -0.00000       0.00000
                        -----------------------------------------
Total Dipole Moment    :     -0.00000      -0.00000       0.00000
                        -----------------------------------------
Magnitude (a.u.)       :      0.00000
Magnitude (Debye)      :      0.00000

                             ****ORCA TERMINATED NORMALLY****
TOTAL RUN TIME: 0 days 0 hours 0 minutes 42 seconds 368 msec
