                         Program Version 4.0.0.2 - RELEASE -
|  1> ! WB97X-D3 6-31G(d) VerySlowConv
|  2> ! KDIIS NOSOSCF
|  3> %base "Scan_12"
|  4>
|  5> %scf
|  6> maxiter 999
|  7> end
|  8>
|  9> * xyz 0 1
| 10> C          1.492911934560   -2.847357251549    0.000000006039
| 11> H          3.024500905176   -2.964609365716    0.000000185489
| 12> C          0.901765642417   -1.614766176977   -0.000000171141
| 13> H          1.769104529089   -0.346998018397    0.000000426758
| 14> C         -0.461262301986   -1.510418716867   -0.000000032713
| 15> H         -1.125512083697   -0.125397013759   -0.000000516565
| 16> C         -1.233143697338   -2.638661293944   -0.000000583196
| 17> H         -2.764732659605   -2.521408709731    0.000000479153
| 18> C         -0.641998174246   -3.871251626818    0.000000114164
| 19> H         -1.509335278252   -5.139021026577    0.000000263190
| 20> C          0.721029512353   -3.975600123795    0.000000728537
| 21> H          1.385281671527   -5.360620675868   -0.000000899716
| 22> **                         ****END OF INPUT****

CARTESIAN COORDINATES (ANGSTROEM)
---------------------------------
  C      1.492912   -2.847357    0.000000
  H      3.024501   -2.964609    0.000000
  C      0.901766   -1.614766   -0.000000
  H      1.769105   -0.346998    0.000000
  C     -0.461262   -1.510419   -0.000000
  H     -1.125512   -0.125397   -0.000001
  C     -1.233144   -2.638661   -0.000001
  H     -2.764733   -2.521409    0.000000
  C     -0.641998   -3.871252    0.000000
  H     -1.509335   -5.139021    0.000000
  C      0.721030   -3.975600    0.000001
  H      1.385282   -5.360621   -0.000001

 Total Charge           Charge          ....    0
 Multiplicity           Mult            ....    1
 Number of Electrons    NEL             ....   42
 Basis Dimension        Dim             ....   96

ORBITAL ENERGIES
----------------

  NO   OCC          E(Eh)            E(eV)
   0   2.0000     -10.339535      -281.3531
   1   2.0000     -10.339314      -281.3470
   2   2.0000     -10.339229      -281.3447
   3   2.0000     -10.338717      -281.3308
   4   2.0000     -10.338624      -281.3283
   5   2.0000     -10.338406      -281.3223
   6   2.0000      -1.003678       -27.3115
   7   2.0000      -0.866543       -23.5798
   8   2.0000      -0.866533       -23.5795
   9   2.0000      -0.690868       -18.7995
  10   2.0000      -0.690691       -18.7947
  11   2.0000      -0.569688       -15.5020
  12   2.0000      -0.565164       -15.3789
  13   2.0000      -0.496353       -13.5065
  14   2.0000      -0.465847       -12.6764
  15   2.0000      -0.465696       -12.6722
  16   2.0000      -0.453660       -12.3447
  17   2.0000      -0.391173       -10.6443
  18   2.0000      -0.390960       -10.6386
  19   2.0000      -0.356547        -9.7021
  20   2.0000      -0.356419        -9.6986
  21   0.0000       0.017303         0.4708
  22   0.0000       0.074309         2.0221
  23   0.0000       0.074320         2.0223
  24   0.0000       0.086366         2.3502
  25   0.0000       0.086563         2.3555

MULLIKEN ATOMIC CHARGES
-----------------------
   0 C :   -0.105070
   1 H :    0.105235
   2 C :   -0.106402
   3 H :    0.106043
   4 C :   -0.106227
   5 H :    0.106422
   6 C :   -0.105072
   7 H :    0.105236
   8 C :   -0.106403
   9 H :    0.106043
  10 C :   -0.106227
  11 H :    0.106421
Sum of atomic charges:   -0.0000000

LOEWDIN ATOMIC CHARGES
----------------------
   0 C :   -0.096928
   1 H :    0.096900
   2 C :   -0.097462
   3 H :    0.097268
   4 C :   -0.097341
   5 H :    0.097563
   6 C :   -0.096929
   7 H :    0.096901
   8 C :   -0.097463
   9 H :    0.097268
  10 C :   -0.097341
  11 H :    0.097563

  Mayer bond orders larger than 0.1
B(  0-C ,  1-H ) :   0.9187 B(  0-C ,  2-C ) :   1.4546 B(  0-C , 10-C ) :   1.4545
B(  2-C ,  3-H ) :   0.9186 B(  2-C ,  4-C ) :   1.4543 B(  4-C ,  5-H ) :   0.9184
B(  4-C ,  6-C ) :   1.4545 B(  6-C ,  7-H ) :   0.9187 B(  6-C ,  8-C ) :   1.4546
B(  8-C ,  9-H ) :   0.9186 B(  8-C , 10-C ) :   1.4543 B( 10-C , 11-H ) :   0.9184

Dispersion correction           -0.003412144
FINAL SINGLE POINT ENERGY      -231.792383206570

DIPOLE MOMENT
-------------
                                X             Y             Z
Electronic contribution:     -0.00000      -0.00000       0.00000
Nuclear contribution   :      0.00000       0.00000      -0.00000
                        -----------------------------------------
Total Dipole Moment    :      0.00000       0.00000      -0.00000
                        -----------------------------------------
Magnitude (a.u.)       :      0.00000
Magnitude (Debye)      :      0.00001

                             ****ORCA TERMINATED NORMALLY****
TOTAL RUN TIME: 0 days 0 hours 0 minutes 48 seconds 348 msec
