                         Program Version 4.0.0.2 - RELEASE -
|  1> ! WB97X-D3 6-31G(d) VerySlowConv
|  2> ! KDIIS NOSOSCF
|  3> %base "Scan_13"
|  4>
|  5> %scf
|  6> maxiter 999
|  7> end
|  8>
|  9> * xyz 0 1
| 10> C          1.488903238310   -2.847050007708    0.000000008900
| 11> H          3.126008110833   -2.972380765075    0.000000077309
| 12> C          0.899496815705   -1.618085362530    0.000000007542
| 13> H          1.826586421995   -0.262974631529    0.000000288293
| 14> C         -0.459521812498   -1.514043193538    0.000000075966
| 15> H         -1.169537833530   -0.033604854699   -0.000000403939
| 16> C         -1.229134553613   -2.638967863779   -0.000000246627
| 17> H         -2.866239624531   -2.513638155641    0.000000292954
| 18> C         -0.639726506355   -3.867934075860    0.000000028172
| 19> H         -1.566820208043   -5.223042097222    0.000000175219
| 20> C          0.719292666510   -3.971974054404    0.000000067200
| 21> H          1.429303285218   -5.452414938014   -0.000000370988
| 22> **                         ****END OF INPUT****

CARTESIAN COORDINATES (ANGSTROEM)
---------------------------------
  C      1.488903   -2.847050    0.000000
  H      3.126008   -2.972381    0.000000
  C      0.899497   -1.618085    0.000000
  H      1.826586   -0.262975    0.000000
  C     -0.459522   -1.514043    0.000000
  H     -1.169538   -0.033605   -0.000000
  C     -1.229135   -2.638968   -0.000000
  H     -2.866240   -2.513638    0.000000
  C     -0.639727   -3.867934    0.000000
  H     -1.566820   -5.223042    0.000000
  C      0.719293   -3.971974    0.000000
  H      1.429303   -5.452415   -0.000000

 Total Charge           Charge          ....    0
 Multiplicity           Mult            ....    1
 Number of Electrons    NEL             ....   42
 Basis Dimension        Dim             ....   96

ORBITAL ENERGIES
----------------

  NO   OCC          E(Eh)            E(eV)
   0   2.0000     -10.349804      -281.6325
   1   2.0000     -10.349584      -281.6265
   2   2.0000     -10.349474      -281.6235
   3   2.0000     -10.348964      -281.6096
   4   2.0000     -10.348847      -281.6064
   5   2.0000     -10.348629      -281.6005
   6   2.0000      -1.012368       -27.5479
   7   2.0000      -0.871960       -23.7272
   8   2.0000      -0.871953       -23.7270
   9   2.0000      -0.693168       -18.8621
  10   2.0000      -0.692979       -18.8569
  11   2.0000      -0.576842       -15.6967
  12   2.0000      -0.555061       -15.1040
  13   2.0000      -0.503334       -13.6964
  14   2.0000      -0.455129       -12.3847
  15   2.0000      -0.455029       -12.3820
  16   2.0000      -0.436144       -11.8681
  17   2.0000      -0.381725       -10.3873
  18   2.0000      -0.381524       -10.3818
  19   2.0000      -0.362418        -9.8619
  20   2.0000      -0.362287        -9.8583
  21   0.0000      -0.013453        -0.3661
  22   0.0000       0.054360         1.4792
  23   0.0000       0.054577         1.4851
  24   0.0000       0.071269         1.9393
  25   0.0000       0.071291         1.9399

MULLIKEN ATOMIC CHARGES
-----------------------
   0 C :   -0.086639
   1 H :    0.086682
   2 C :   -0.087731
   3 H :    0.087338
   4 C :   -0.087284
   5 H :    0.087630
   6 C :   -0.086627
   7 H :    0.086678
   8 C :   -0.087724
   9 H :    0.087335
  10 C :   -0.087289
  11 H :    0.087632
Sum of atomic charges:   -0.0000000

LOEWDIN ATOMIC CHARGES
----------------------
   0 C :   -0.084599
   1 H :    0.084561
   2 C :   -0.085027
   3 H :    0.084855
   4 C :   -0.084841
   5 H :    0.085047
   6 C :   -0.084590
   7 H :    0.084557
   8 C :   -0.085021
   9 H :    0.084853
  10 C :   -0.084845
  11 H :    0.085049

  Mayer bond orders larger than 0.1
B(  0-C ,  1-H ) :   0.9067 B(  0-C ,  2-C ) :   1.4578 B(  0-C , 10-C ) :   1.4575
B(  2-C ,  3-H ) :   0.9065 B(  2-C ,  4-C ) :   1.4582 B(  4-C ,  5-H ) :   0.9062
B(  4-C ,  6-C ) :   1.4575 B(  6-C ,  7-H ) :   0.9067 B(  6-C ,  8-C ) :   1.4578
B(  8-C ,  9-H ) :   0.9065 B(  8-C , 10-C ) :   1.4582 B( 10-C , 11-H ) :   0.9062

Dispersion correction           -0.003625206
FINAL SINGLE POINT ENERGY      -231.671386790123

DIPOLE MOMENT
-------------
                                X             Y             Z
Electronic contribution:     -0.00000      -0.00000      -0.00000
Nuclear contribution   :     -0.00001      -0.00000       0.00000
                        -----------------------------------------
Total Dipole Moment    :     -0.00001      -0.00000       0.00000
                        -----------------------------------------
Magnitude (a.u.)       :      0.00001
Magnitude (Debye)      :      0.00003

                             ****ORCA TERMINATED NORMALLY****
TOTAL RUN TIME: 0 days 0 hours 0 minutes 44 seconds 166 msec
