                         Program Version 4.0.0.2 - RELEASE -
|  1> ! WB97X-D3 6-31G(d) VerySlowConv
|  2> ! KDIIS NOSOSCF
|  3> %base "Scan_14"
|  4>
|  5> %scf
|  6> maxiter 999
|  7> end
|  8>
|  9> * xyz 0 1
| 10> C          1.484578304788   -2.846719414377   -0.000000197009
| 11> H          3.231133287890   -2.980428139636    0.000000239585
| 12> C          0.897045789444   -1.621663841578   -0.000000183836
| 13> H          1.886121011536   -0.175959043427    0.000000356294
| 14> C         -0.457648857868   -1.517954968863    0.000000099007
| 15> H         -1.215127814080    0.061461777538   -0.000000374783
| 16> C         -1.224810387187   -2.639299404064   -0.000000149303
| 17> H         -2.971364980278   -2.505589598717    0.000000347622
| 18> C         -0.637279562319   -3.864353346423   -0.000000053176
| 19> H         -1.626350446345   -5.310060872490    0.000000167314
| 20> C          0.717414518234   -3.968064498351    0.000000047609
| 21> H          1.474899136185   -5.547478649611   -0.000000299324
| 22> **                         ****END OF INPUT****

CARTESIAN COORDINATES (ANGSTROEM)
---------------------------------
  C      1.484578   -2.846719   -0.000000
  H      3.231133   -2.980428    0.000000
  C      0.897046   -1.621664   -0.000000
  H      1.886121   -0.175959    0.000000
  C     -0.457649   -1.517955    0.000000
  H     -1.215128    0.061462   -0.000000
  C     -1.224810   -2.639299   -0.000000
  H     -2.971365   -2.505590    0.000000
  C     -0.637280   -3.864353   -0.000000
  H     -1.626350   -5.310061    0.000000
  C      0.717415   -3.968064    0.000000
  H      1.474899   -5.547479   -0.000000

 Total Charge           Charge          ....    0
 Multiplicity           Mult            ....    1
 Number of Electrons    NEL             ....   42
 Basis Dimension        Dim             ....   96

ORBITAL ENERGIES
----------------

  NO   OCC          E(Eh)            E(eV)
   0   2.0000     -10.358685      -281.8742
   1   2.0000     -10.358481      -281.8686
   2   2.0000     -10.358306      -281.8638
   3   2.0000     -10.357819      -281.8506
   4   2.0000     -10.357657      -281.8462
   5   2.0000     -10.357448      -281.8405
   6   2.0000      -1.020964       -27.7818
   7   2.0000      -0.877704       -23.8835
   8   2.0000      -0.877696       -23.8833
   9   2.0000      -0.696384       -18.9496
  10   2.0000      -0.696174       -18.9439
  11   2.0000      -0.583849       -15.8873
  12   2.0000      -0.546343       -14.8667
  13   2.0000      -0.510209       -13.8835
  14   2.0000      -0.444558       -12.0970
  15   2.0000      -0.444474       -12.0947
  16   2.0000      -0.419893       -11.4259
  17   2.0000      -0.372144       -10.1265
  18   2.0000      -0.371907       -10.1201
  19   2.0000      -0.368162       -10.0182
  20   2.0000      -0.368035       -10.0147
  21   0.0000      -0.041353        -1.1253
  22   0.0000       0.024427         0.6647
  23   0.0000       0.024654         0.6709
  24   0.0000       0.068368         1.8604
  25   0.0000       0.068417         1.8617

MULLIKEN ATOMIC CHARGES
-----------------------
   0 C :   -0.069719
   1 H :    0.069606
   2 C :   -0.069748
   3 H :    0.069721
   4 C :   -0.069376
   5 H :    0.069521
   6 C :   -0.069730
   7 H :    0.069610
   8 C :   -0.069755
   9 H :    0.069723
  10 C :   -0.069372
  11 H :    0.069520
Sum of atomic charges:   -0.0000000

LOEWDIN ATOMIC CHARGES
----------------------
   0 C :   -0.072444
   1 H :    0.072492
   2 C :   -0.072538
   3 H :    0.072458
   4 C :   -0.072158
   5 H :    0.072192
   6 C :   -0.072452
   7 H :    0.072495
   8 C :   -0.072543
   9 H :    0.072461
  10 C :   -0.072154
  11 H :    0.072191

  Mayer bond orders larger than 0.1
B(  0-C ,  1-H ) :   0.8892 B(  0-C ,  2-C ) :   1.4631 B(  0-C , 10-C ) :   1.4634
B(  2-C ,  3-H ) :   0.8889 B(  2-C ,  4-C ) :   1.4644 B(  4-C ,  5-H ) :   0.8885
B(  4-C ,  6-C ) :   1.4634 B(  6-C ,  7-H ) :   0.8892 B(  6-C ,  8-C ) :   1.4631
B(  8-C ,  9-H ) :   0.8889 B(  8-C , 10-C ) :   1.4644 B( 10-C , 11-H ) :   0.8885

Dispersion correction           -0.003719231
FINAL SINGLE POINT ENERGY      -231.550122376757

DIPOLE MOMENT
-------------
                                X             Y             Z
Electronic contribution:     -0.00000       0.00000      -0.00000
Nuclear contribution   :      0.00001       0.00000       0.00000
                        -----------------------------------------
Total Dipole Moment    :      0.00001       0.00000       0.00000
                        -----------------------------------------
Magnitude (a.u.)       :      0.00001
Magnitude (Debye)      :      0.00002

                             ****ORCA TERMINATED NORMALLY****
TOTAL RUN TIME: 0 days 0 hours 0 minutes 43 seconds 637 msec
