                         Program Version 4.0.0.2 - RELEASE -
|  1> ! WB97X-D3 6-31G(d) VerySlowConv
|  2> ! KDIIS NOSOSCF
|  3> %base "Scan_15"
|  4>
|  5> %scf
|  6> maxiter 999
|  7> end
|  8>
|  9> * xyz 0 1
| 10> C          1.479910589028   -2.846361811008   -0.000000178744
| 11> H          3.338397826285   -2.988640173683    0.000000258917
| 12> C          0.894403411104   -1.625528284157    0.000000303320
| 13> H          1.946863768922   -0.087170344969   -0.000000059578
| 14> C         -0.455623050699   -1.522175596107    0.000000070195
| 15> H         -1.261649946700    0.158460776162   -0.000000299610
| 16> C         -1.220142319065   -2.639656514930   -0.000000067668
| 17> H         -3.078629564034   -2.497378133592    0.000000288364
| 18> C         -0.634635091335   -3.860490089819    0.000000049014
| 19> H         -1.687095383750   -5.398848080889   -0.000000032556
| 20> C          0.715391387167   -3.963842710717   -0.000000113334
| 21> H          1.521418373077   -5.644479036291   -0.000000218319
| 22> **                         ****END OF INPUT****

CARTESIAN COORDINATES (ANGSTROEM)
---------------------------------
  C      1.479911   -2.846362   -0.000000
  H      3.338398   -2.988640    0.000000
  C      0.894403   -1.625528    0.000000
  H      1.946864   -0.087170   -0.000000
  C     -0.455623   -1.522176    0.000000
  H     -1.261650    0.158461   -0.000000
  C     -1.220142   -2.639657   -0.000000
  H     -3.078630   -2.497378    0.000000
  C     -0.634635   -3.860490    0.000000
  H     -1.687095   -5.398848   -0.000000
  C      0.715391   -3.963843   -0.000000
  H      1.521418   -5.644479   -0.000000

 Total Charge           Charge          ....    0
 Multiplicity           Mult            ....    1
 Number of Electrons    NEL             ....   42
 Basis Dimension        Dim             ....   96

ORBITAL ENERGIES
----------------

  NO   OCC          E(Eh)            E(eV)
   0   2.0000     -10.366009      -282.0734
   1   2.0000     -10.365748      -282.0664
   2   2.0000     -10.365674      -282.0643
   3   2.0000     -10.365077      -282.0481
   4   2.0000     -10.365007      -282.0462
   5   2.0000     -10.364746      -282.0391
   6   2.0000      -1.029217       -28.0064
   7   2.0000      -0.883460       -24.0402
   8   2.0000      -0.883457       -24.0401
   9   2.0000      -0.700118       -19.0512
  10   2.0000      -0.699925       -19.0459
  11   2.0000      -0.590558       -16.0699
  12   2.0000      -0.539312       -14.6754
  13   2.0000      -0.516849       -14.0642
  14   2.0000      -0.434397       -11.8206
  15   2.0000      -0.434370       -11.8198
  16   2.0000      -0.405017       -11.0211
  17   2.0000      -0.373656       -10.1677
  18   2.0000      -0.373520       -10.1640
  19   2.0000      -0.362687        -9.8692
  20   2.0000      -0.362472        -9.8634
  21   0.0000      -0.065969        -1.7951
  22   0.0000      -0.002891        -0.0787
  23   0.0000      -0.002754        -0.0749
  24   0.0000       0.044809         1.2193
  25   0.0000       0.065746         1.7890

MULLIKEN ATOMIC CHARGES
-----------------------
   0 C :   -0.054403
   1 H :    0.053944
   2 C :   -0.053775
   3 H :    0.054005
   4 C :   -0.053975
   5 H :    0.054203
   6 C :   -0.054402
   7 H :    0.053943
   8 C :   -0.053774
   9 H :    0.054005
  10 C :   -0.053975
  11 H :    0.054203
Sum of atomic charges:    0.0000000

LOEWDIN ATOMIC CHARGES
----------------------
   0 C :   -0.060498
   1 H :    0.060331
   2 C :   -0.060485
   3 H :    0.060417
   4 C :   -0.060340
   5 H :    0.060575
   6 C :   -0.060497
   7 H :    0.060331
   8 C :   -0.060485
   9 H :    0.060416
  10 C :   -0.060341
  11 H :    0.060575

  Mayer bond orders larger than 0.1
B(  0-C ,  1-H ) :   0.8659 B(  0-C ,  2-C ) :   1.4714 B(  0-C , 10-C ) :   1.4723
B(  2-C ,  3-H ) :   0.8655 B(  2-C ,  4-C ) :   1.4733 B(  4-C ,  5-H ) :   0.8650
B(  4-C ,  6-C ) :   1.4723 B(  6-C ,  7-H ) :   0.8659 B(  6-C ,  8-C ) :   1.4714
B(  8-C ,  9-H ) :   0.8655 B(  8-C , 10-C ) :   1.4733 B( 10-C , 11-H ) :   0.8650

Dispersion correction           -0.003786641
FINAL SINGLE POINT ENERGY      -231.433321645012

DIPOLE MOMENT
-------------
                                X             Y             Z
Electronic contribution:     -0.00000      -0.00000       0.00000
Nuclear contribution   :      0.00000       0.00000      -0.00000
                        -----------------------------------------
Total Dipole Moment    :     -0.00000      -0.00000      -0.00000
                        -----------------------------------------
Magnitude (a.u.)       :      0.00000
Magnitude (Debye)      :      0.00000

                             ****ORCA TERMINATED NORMALLY****
TOTAL RUN TIME: 0 days 0 hours 0 minutes 44 seconds 172 msec
