                         Program Version 4.0.0.2 - RELEASE -
|  1> ! WB97X-D3 6-31G(d) VerySlowConv
|  2> ! KDIIS NOSOSCF
|  3> %base "Scan_16"
|  4>
|  5> %scf
|  6> maxiter 999
|  7> end
|  8>
|  9> * xyz 0 1
| 10> C          1.475241178255   -2.846004340497    0.000000129546
| 11> H          3.446722313329   -2.996933077989    0.000000035137
| 12> C          0.891759106357   -1.629393393363    0.000000127469
| 13> H          2.008207819930    0.002494966731    0.000000029969
| 14> C         -0.453597908920   -1.526398229775    0.000000052305
| 15> H         -1.308630338036    0.256418893596   -0.000000194922
| 16> C         -1.215472856501   -2.640013994179   -0.000000039083
| 17> H         -3.186953994017   -2.489085247631    0.000000181004
| 18> C         -0.631990785683   -3.856624940270   -0.000000197001
| 19> H         -1.748439466649   -5.488513325121    0.000000089897
| 20> C          0.713366229232   -3.959620105315   -0.000000080085
| 21> H          1.568398702702   -5.742437206188   -0.000000134238
| 22> **                         ****END OF INPUT****

CARTESIAN COORDINATES (ANGSTROEM)
---------------------------------
  C      1.475241   -2.846004    0.000000
  H      3.446722   -2.996933    0.000000
  C      0.891759   -1.629393    0.000000
  H      2.008208    0.002495    0.000000
  C     -0.453598   -1.526398    0.000000
  H     -1.308630    0.256419   -0.000000
  C     -1.215473   -2.640014   -0.000000
  H     -3.186954   -2.489085    0.000000
  C     -0.631991   -3.856625   -0.000000
  H     -1.748439   -5.488513    0.000000
  C      0.713366   -3.959620   -0.000000
  H      1.568399   -5.742437   -0.000000

 Total Charge           Charge          ....    0
 Multiplicity           Mult            ....    1
 Number of Electrons    NEL             ....   42
 Basis Dimension        Dim             ....   96

ORBITAL ENERGIES
----------------

  NO   OCC          E(Eh)            E(eV)
   0   2.0000     -10.372109      -282.2394
   1   2.0000     -10.371842      -282.2322
   2   2.0000     -10.371751      -282.2297
   3   2.0000     -10.371142      -282.2131
   4   2.0000     -10.371056      -282.2108
   5   2.0000     -10.370789      -282.2035
   6   2.0000      -1.036887       -28.2151
   7   2.0000      -0.889017       -24.1914
   8   2.0000      -0.889006       -24.1911
   9   2.0000      -0.704120       -19.1601
  10   2.0000      -0.703920       -19.1546
  11   2.0000      -0.596863       -16.2415
  12   2.0000      -0.534112       -14.5339
  13   2.0000      -0.523109       -14.2345
  14   2.0000      -0.425004       -11.5649
  15   2.0000      -0.424992       -11.5646
  16   2.0000      -0.391680       -10.6582
  17   2.0000      -0.378828       -10.3084
  18   2.0000      -0.378671       -10.3042
  19   2.0000      -0.353730        -9.6255
  20   2.0000      -0.353514        -9.6196
  21   0.0000      -0.087016        -2.3678
  22   0.0000      -0.027387        -0.7452
  23   0.0000      -0.027262        -0.7418
  24   0.0000       0.021355         0.5811
  25   0.0000       0.063297         1.7224

MULLIKEN ATOMIC CHARGES
-----------------------
   0 C :   -0.041675
   1 H :    0.041487
   2 C :   -0.040933
   3 H :    0.040974
   4 C :   -0.041069
   5 H :    0.041217
   6 C :   -0.041675
   7 H :    0.041487
   8 C :   -0.040933
   9 H :    0.040974
  10 C :   -0.041069
  11 H :    0.041217
Sum of atomic charges:    0.0000000

LOEWDIN ATOMIC CHARGES
----------------------
   0 C :   -0.049741
   1 H :    0.049688
   2 C :   -0.049454
   3 H :    0.049307
   4 C :   -0.049315
   5 H :    0.049515
   6 C :   -0.049741
   7 H :    0.049688
   8 C :   -0.049454
   9 H :    0.049307
  10 C :   -0.049315
  11 H :    0.049515

  Mayer bond orders larger than 0.1
B(  0-C ,  1-H ) :   0.8374 B(  0-C ,  2-C ) :   1.4831 B(  0-C , 10-C ) :   1.4837
B(  2-C ,  3-H ) :   0.8370 B(  2-C ,  4-C ) :   1.4851 B(  4-C ,  5-H ) :   0.8366
B(  4-C ,  6-C ) :   1.4837 B(  6-C ,  7-H ) :   0.8374 B(  6-C ,  8-C ) :   1.4831
B(  8-C ,  9-H ) :   0.8370 B(  8-C , 10-C ) :   1.4851 B( 10-C , 11-H ) :   0.8366

Dispersion correction           -0.003814099
FINAL SINGLE POINT ENERGY      -231.324473130944

DIPOLE MOMENT
-------------
                                X             Y             Z
Electronic contribution:     -0.00000      -0.00000      -0.00000
Nuclear contribution   :      0.00000       0.00000       0.00000
                        -----------------------------------------
Total Dipole Moment    :     -0.00000       0.00000       0.00000
                        -----------------------------------------
Magnitude (a.u.)       :      0.00000
Magnitude (Debye)      :      0.00000

                             ****ORCA TERMINATED NORMALLY****
TOTAL RUN TIME: 0 days 0 hours 0 minutes 47 seconds 21 msec
