                         Program Version 4.0.0.2 - RELEASE -
|  1> ! WB97X-D3 6-31G(d) VerySlowConv
|  2> ! KDIIS NOSOSCF
|  3> %base "Scan_17"
|  4>
|  5> %scf
|  6> maxiter 999
|  7> end
|  8>
|  9> * xyz 0 1
| 10> C          1.471011205556   -2.845680161130   -0.000000042321
| 11> H          3.555286310512   -3.005244985386    0.000000091209
| 12> C          0.889363669064   -1.632894273555    0.000000010001
| 13> H          2.069688156679    0.092358619293    0.000000037802
| 14> C         -0.451763495480   -1.530223033180   -0.000000058067
| 15> H         -1.355715005862    0.354593925735   -0.000000067361
| 16> C         -1.211242869833   -2.640337631313    0.000000015141
| 17> H         -3.295518052217   -2.480774638234    0.000000089674
| 18> C         -0.629595468258   -3.853123598513    0.000000064963
| 19> H         -1.809919026627   -5.578377208066    0.000000006888
| 20> C          0.711531793255   -3.955794833573   -0.000000009201
| 21> H          1.615482783212   -5.840612182077   -0.000000138728
| 22> **                         ****END OF INPUT****

CARTESIAN COORDINATES (ANGSTROEM)
---------------------------------
  C      1.471011   -2.845680   -0.000000
  H      3.555286   -3.005245    0.000000
  C      0.889364   -1.632894    0.000000
  H      2.069688    0.092359    0.000000
  C     -0.451763   -1.530223   -0.000000
  H     -1.355715    0.354594   -0.000000
  C     -1.211243   -2.640338    0.000000
  H     -3.295518   -2.480775    0.000000
  C     -0.629595   -3.853124    0.000000
  H     -1.809919   -5.578377    0.000000
  C      0.711532   -3.955795   -0.000000
  H      1.615483   -5.840612   -0.000000

 Total Charge           Charge          ....    0
 Multiplicity           Mult            ....    1
 Number of Electrons    NEL             ....   42
 Basis Dimension        Dim             ....   96

ORBITAL ENERGIES
----------------

  NO   OCC          E(Eh)            E(eV)
   0   2.0000     -10.376936      -282.3708
   1   2.0000     -10.376690      -282.3641
   2   2.0000     -10.376519      -282.3594
   3   2.0000     -10.375947      -282.3439
   4   2.0000     -10.375800      -282.3399
   5   2.0000     -10.375548      -282.3330
   6   2.0000      -1.043418       -28.3928
   7   2.0000      -0.893910       -24.3245
   8   2.0000      -0.893892       -24.3240
   9   2.0000      -0.707900       -19.2629
  10   2.0000      -0.707663       -19.2565
  11   2.0000      -0.602393       -16.3919
  12   2.0000      -0.530480       -14.4351
  13   2.0000      -0.528622       -14.3845
  14   2.0000      -0.416388       -11.3305
  15   2.0000      -0.416366       -11.3299
  16   2.0000      -0.383392       -10.4326
  17   2.0000      -0.383248       -10.4287
  18   2.0000      -0.379818       -10.3354
  19   2.0000      -0.345384        -9.3984
  20   2.0000      -0.345151        -9.3920
  21   0.0000      -0.104651        -2.8477
  22   0.0000      -0.049124        -1.3367
  23   0.0000      -0.049004        -1.3335
  24   0.0000       0.001168         0.0318
  25   0.0000       0.047078         1.2810

MULLIKEN ATOMIC CHARGES
-----------------------
   0 C :   -0.031251
   1 H :    0.031508
   2 C :   -0.030407
   3 H :    0.030860
   4 C :   -0.031182
   5 H :    0.030471
   6 C :   -0.031253
   7 H :    0.031508
   8 C :   -0.030405
   9 H :    0.030859
  10 C :   -0.031178
  11 H :    0.030470
Sum of atomic charges:    0.0000000

LOEWDIN ATOMIC CHARGES
----------------------
   0 C :   -0.040124
   1 H :    0.040204
   2 C :   -0.039745
   3 H :    0.039744
   4 C :   -0.039397
   5 H :    0.039318
   6 C :   -0.040125
   7 H :    0.040204
   8 C :   -0.039744
   9 H :    0.039743
  10 C :   -0.039394
  11 H :    0.039316

  Mayer bond orders larger than 0.1
B(  0-C ,  1-H ) :   0.8040 B(  0-C ,  2-C ) :   1.4969 B(  0-C , 10-C ) :   1.4985
B(  2-C ,  3-H ) :   0.8036 B(  2-C ,  4-C ) :   1.4997 B(  4-C ,  5-H ) :   0.8032
B(  4-C ,  6-C ) :   1.4985 B(  6-C ,  7-H ) :   0.8040 B(  6-C ,  8-C ) :   1.4969
B(  8-C ,  9-H ) :   0.8036 B(  8-C , 10-C ) :   1.4997 B( 10-C , 11-H ) :   0.8032

Dispersion correction           -0.003776152
FINAL SINGLE POINT ENERGY      -231.225389889007

DIPOLE MOMENT
-------------
                                X             Y             Z
Electronic contribution:     -0.00000       0.00000      -0.00000
Nuclear contribution   :      0.00000      -0.00000       0.00000
                        -----------------------------------------
Total Dipole Moment    :     -0.00000       0.00000       0.00000
                        -----------------------------------------
Magnitude (a.u.)       :      0.00000
Magnitude (Debye)      :      0.00000

                             ****ORCA TERMINATED NORMALLY****
TOTAL RUN TIME: 0 days 0 hours 0 minutes 45 seconds 33 msec
