                         Program Version 4.0.0.2 - RELEASE -
|  1> ! WB97X-D3 6-31G(d) VerySlowConv
|  2> ! KDIIS NOSOSCF
|  3> %base "Scan_18"
|  4>
|  5> %scf
|  6> maxiter 999
|  7> end
|  8>
|  9> * xyz 0 1
| 10> C          1.467561654306   -2.845415659231    0.000000096938
| 11> H          3.663554659293   -3.013534408875    0.000000012362
| 12> C          0.887409786378   -1.635749277717    0.000000176514
| 13> H          2.131001274857    0.181976744192   -0.000000031759
| 14> C         -0.450267723002   -1.533342050611    0.000000046331
| 15> H         -1.402670896503    0.452501598931   -0.000000082639
| 16> C         -1.207793767372   -2.640601104658   -0.000000142224
| 17> H         -3.403786723939   -2.472486953535    0.000000128684
| 18> C         -0.627642433475   -3.850267693217   -0.000000172239
| 19> H         -1.871230311246   -5.667996535499    0.000000092531
| 20> C          0.710035485963   -3.952675202929   -0.000000011977
| 21> H          1.662438994738   -5.938519456852   -0.000000112522
| 22> **                         ****END OF INPUT****

CARTESIAN COORDINATES (ANGSTROEM)
---------------------------------
  C      1.467562   -2.845416    0.000000
  H      3.663555   -3.013534    0.000000
  C      0.887410   -1.635749    0.000000
  H      2.131001    0.181977   -0.000000
  C     -0.450268   -1.533342    0.000000
  H     -1.402671    0.452502   -0.000000
  C     -1.207794   -2.640601   -0.000000
  H     -3.403787   -2.472487    0.000000
  C     -0.627642   -3.850268   -0.000000
  H     -1.871230   -5.667997    0.000000
  C      0.710035   -3.952675   -0.000000
  H      1.662439   -5.938519   -0.000000

 Total Charge           Charge          ....    0
 Multiplicity           Mult            ....    1
 Number of Electrons    NEL             ....   42
 Basis Dimension        Dim             ....   96

ORBITAL ENERGIES
----------------

  NO   OCC          E(Eh)            E(eV)
   0   2.0000     -10.380765      -282.4750
   1   2.0000     -10.380462      -282.4667
   2   2.0000     -10.380396      -282.4649
   3   2.0000     -10.379720      -282.4465
   4   2.0000     -10.379651      -282.4447
   5   2.0000     -10.379353      -282.4366
   6   2.0000      -1.048701       -28.5366
   7   2.0000      -0.898038       -24.4368
   8   2.0000      -0.898019       -24.4363
   9   2.0000      -0.711229       -19.3535
  10   2.0000      -0.711009       -19.3475
  11   2.0000      -0.607040       -16.5184
  12   2.0000      -0.533256       -14.5106
  13   2.0000      -0.528232       -14.3739
  14   2.0000      -0.408642       -11.1197
  15   2.0000      -0.408633       -11.1195
  16   2.0000      -0.387300       -10.5390
  17   2.0000      -0.387150       -10.5349
  18   2.0000      -0.369354       -10.0506
  19   2.0000      -0.337673        -9.1886
  20   2.0000      -0.337468        -9.1830
  21   0.0000      -0.119035        -3.2391
  22   0.0000      -0.068232        -1.8567
  23   0.0000      -0.068182        -1.8553
  24   0.0000      -0.016142        -0.4392
  25   0.0000       0.031684         0.8622

MULLIKEN ATOMIC CHARGES
-----------------------
   0 C :   -0.023128
   1 H :    0.023141
   2 C :   -0.022378
   3 H :    0.023044
   4 C :   -0.023828
   5 H :    0.023144
   6 C :   -0.023139
   7 H :    0.023146
   8 C :   -0.022371
   9 H :    0.023041
  10 C :   -0.023809
  11 H :    0.023136
Sum of atomic charges:    0.0000000

LOEWDIN ATOMIC CHARGES
----------------------
   0 C :   -0.031567
   1 H :    0.031405
   2 C :   -0.031442
   3 H :    0.031473
   4 C :   -0.031403
   5 H :    0.031531
   6 C :   -0.031577
   7 H :    0.031409
   8 C :   -0.031435
   9 H :    0.031470
  10 C :   -0.031386
  11 H :    0.031523

  Mayer bond orders larger than 0.1
B(  0-C ,  1-H ) :   0.7668 B(  0-C ,  2-C ) :   1.5136 B(  0-C , 10-C ) :   1.5153
B(  2-C ,  3-H ) :   0.7665 B(  2-C ,  4-C ) :   1.5158 B(  4-C ,  5-H ) :   0.7661
B(  4-C ,  6-C ) :   1.5153 B(  6-C ,  7-H ) :   0.7668 B(  6-C ,  8-C ) :   1.5136
B(  8-C ,  9-H ) :   0.7665 B(  8-C , 10-C ) :   1.5158 B( 10-C , 11-H ) :   0.7661

Dispersion correction           -0.003672592
FINAL SINGLE POINT ENERGY      -231.136996084626

DIPOLE MOMENT
-------------
                                X             Y             Z
Electronic contribution:     -0.00001       0.00001      -0.00000
Nuclear contribution   :      0.00000      -0.00001       0.00000
                        -----------------------------------------
Total Dipole Moment    :     -0.00000       0.00000       0.00000
                        -----------------------------------------
Magnitude (a.u.)       :      0.00001
Magnitude (Debye)      :      0.00001

                             ****ORCA TERMINATED NORMALLY****
TOTAL RUN TIME: 0 days 0 hours 0 minutes 52 seconds 160 msec
