                         Program Version 4.0.0.2 - RELEASE -
|  1> ! WB97X-D3 6-31G(d) VerySlowConv
|  2> ! KDIIS NOSOSCF
|  3> %base "Scan_19"
|  4>
|  5> %scf
|  6> maxiter 999
|  7> end
|  8>
|  9> * xyz 0 1
| 10> C          1.464924102056   -2.845212262681   -0.000000234618
| 11> H          3.771223251050   -3.021777825960    0.000000110013
| 12> C          0.885914109472   -1.637932065075   -0.000000235394
| 13> H          2.191974826054    0.271098381683    0.000000139633
| 14> C         -0.449123703072   -1.535728479412   -0.000000010193
| 15> H         -1.449366309282    0.549866611579   -0.000000037628
| 16> C         -1.205155250709   -2.640801603943    0.000000237365
| 17> H         -3.511455249244   -2.464245072694   -0.000000030448
| 18> C         -0.626150292864   -3.848083194100    0.000000205792
| 19> H         -1.932202040220   -5.757119629482   -0.000000039763
| 20> C          0.708891221440   -3.950290393826   -0.000000030818
| 21> H          1.709135335320   -6.035884466088   -0.000000073942
| 22> **                         ****END OF INPUT****

CARTESIAN COORDINATES (ANGSTROEM)
---------------------------------
  C      1.464924   -2.845212   -0.000000
  H      3.771223   -3.021778    0.000000
  C      0.885914   -1.637932   -0.000000
  H      2.191975    0.271098    0.000000
  C     -0.449124   -1.535728   -0.000000
  H     -1.449366    0.549867   -0.000000
  C     -1.205155   -2.640802    0.000000
  H     -3.511455   -2.464245   -0.000000
  C     -0.626150   -3.848083    0.000000
  H     -1.932202   -5.757120   -0.000000
  C      0.708891   -3.950290   -0.000000
  H      1.709135   -6.035884   -0.000000

 Total Charge           Charge          ....    0
 Multiplicity           Mult            ....    1
 Number of Electrons    NEL             ....   42
 Basis Dimension        Dim             ....   96

ORBITAL ENERGIES
----------------

  NO   OCC          E(Eh)            E(eV)
   0   2.0000     -10.384052      -282.5644
   1   2.0000     -10.383726      -282.5555
   2   2.0000     -10.383676      -282.5542
   3   2.0000     -10.382972      -282.5350
   4   2.0000     -10.382914      -282.5335
   5   2.0000     -10.382596      -282.5248
   6   2.0000      -1.052852       -28.6496
   7   2.0000      -0.901513       -24.5314
   8   2.0000      -0.901497       -24.5310
   9   2.0000      -0.714221       -19.4349
  10   2.0000      -0.713994       -19.4288
  11   2.0000      -0.611021       -16.6267
  12   2.0000      -0.537178       -14.6173
  13   2.0000      -0.527170       -14.3450
  14   2.0000      -0.401914       -10.9366
  15   2.0000      -0.401829       -10.9343
  16   2.0000      -0.390736       -10.6325
  17   2.0000      -0.390567       -10.6279
  18   2.0000      -0.360207        -9.8017
  19   2.0000      -0.330772        -9.0008
  20   2.0000      -0.330556        -8.9949
  21   0.0000      -0.130740        -3.5576
  22   0.0000      -0.085179        -2.3178
  23   0.0000      -0.085119        -2.3162
  24   0.0000      -0.030912        -0.8412
  25   0.0000       0.018548         0.5047

MULLIKEN ATOMIC CHARGES
-----------------------
   0 C :   -0.016945
   1 H :    0.017166
   2 C :   -0.015919
   3 H :    0.016507
   4 C :   -0.017641
   5 H :    0.016802
   6 C :   -0.017043
   7 H :    0.017208
   8 C :   -0.015868
   9 H :    0.016486
  10 C :   -0.017492
  11 H :    0.016738
Sum of atomic charges:    0.0000000

LOEWDIN ATOMIC CHARGES
----------------------
   0 C :   -0.024334
   1 H :    0.024341
   2 C :   -0.023952
   3 H :    0.023863
   4 C :   -0.024051
   5 H :    0.024109
   6 C :   -0.024421
   7 H :    0.024382
   8 C :   -0.023907
   9 H :    0.023842
  10 C :   -0.023918
  11 H :    0.024048

  Mayer bond orders larger than 0.1
B(  0-C ,  1-H ) :   0.7262 B(  0-C ,  2-C ) :   1.5327 B(  0-C , 10-C ) :   1.5343
B(  2-C ,  3-H ) :   0.7259 B(  2-C ,  4-C ) :   1.5346 B(  4-C ,  5-H ) :   0.7255
B(  4-C ,  6-C ) :   1.5343 B(  6-C ,  7-H ) :   0.7262 B(  6-C ,  8-C ) :   1.5327
B(  8-C ,  9-H ) :   0.7259 B(  8-C , 10-C ) :   1.5346 B( 10-C , 11-H ) :   0.7255

Dispersion correction           -0.003532645
FINAL SINGLE POINT ENERGY      -231.058995110597

DIPOLE MOMENT
-------------
                                X             Y             Z
Electronic contribution:     -0.00005       0.00006      -0.00000
Nuclear contribution   :      0.00001      -0.00001       0.00000
                        -----------------------------------------
Total Dipole Moment    :     -0.00004       0.00005       0.00000
                        -----------------------------------------
Magnitude (a.u.)       :      0.00006
Magnitude (Debye)      :      0.00016

                             ****ORCA TERMINATED NORMALLY****
TOTAL RUN TIME: 0 days 0 hours 0 minutes 51 seconds 480 msec
