                         Program Version 4.0.0.2 - RELEASE -
|  1> ! WB97X-D3 6-31G(d) VerySlowConv
|  2> ! KDIIS NOSOSCF
|  3> %base "Scan_2"
|  4>
|  5> %scf
|  6> maxiter 999
|  7> end
|  8>
|  9> * xyz 0 1
| 10> C          1.523135948657   -2.849670976575   -0.000000000000
| 11> H          2.399164989653   -2.916736215407   -0.000000000000
| 12> C          0.918881890894   -1.589748552213    0.000000000000
| 13> H          1.414976928951   -0.864617996896    0.000000000000
| 14> C         -0.474370035750   -1.483086640496   -0.000000000000
| 15> H         -0.854303957637   -0.690890466866   -0.000000000000
| 16> C         -1.263367944016   -2.636347348078   -0.000000000000
| 17> H         -2.139396922145   -2.569281985351   -0.000000000000
| 18> C         -0.659113744377   -3.896269912571    0.000000000000
| 19> H         -1.155208243530   -4.621400794330    0.000000000000
| 20> C          0.734138228341   -4.002931628454   -0.000000000000
| 21> H          1.114072860959   -4.795127482762   -0.000000000000
| 22> **                         ****END OF INPUT****

CARTESIAN COORDINATES (ANGSTROEM)
---------------------------------
  C      1.523136   -2.849671   -0.000000
  H      2.399165   -2.916736   -0.000000
  C      0.918882   -1.589749    0.000000
  H      1.414977   -0.864618    0.000000
  C     -0.474370   -1.483087   -0.000000
  H     -0.854304   -0.690890   -0.000000
  C     -1.263368   -2.636347   -0.000000
  H     -2.139397   -2.569282   -0.000000
  C     -0.659114   -3.896270    0.000000
  H     -1.155208   -4.621401    0.000000
  C      0.734138   -4.002932   -0.000000
  H      1.114073   -4.795127   -0.000000

 Total Charge           Charge          ....    0
 Multiplicity           Mult            ....    1
 Number of Electrons    NEL             ....   42
 Basis Dimension        Dim             ....   96

ORBITAL ENERGIES
----------------

  NO   OCC          E(Eh)            E(eV)
   0   2.0000     -10.256280      -279.0876
   1   2.0000     -10.256142      -279.0838
   2   2.0000     -10.256006      -279.0801
   3   2.0000     -10.255644      -279.0703
   4   2.0000     -10.255531      -279.0672
   5   2.0000     -10.255384      -279.0632
   6   2.0000      -0.967854       -26.3367
   7   2.0000      -0.873810       -23.7776
   8   2.0000      -0.873750       -23.7759
   9   2.0000      -0.740680       -20.1549
  10   2.0000      -0.740590       -20.1525
  11   2.0000      -0.661828       -18.0093
  12   2.0000      -0.625609       -17.0237
  13   2.0000      -0.537319       -14.6212
  14   2.0000      -0.537106       -14.6154
  15   2.0000      -0.531686       -14.4679
  16   2.0000      -0.457366       -12.4456
  17   2.0000      -0.446854       -12.1595
  18   2.0000      -0.446546       -12.1511
  19   2.0000      -0.326579        -8.8867
  20   2.0000      -0.326490        -8.8842
  21   0.0000       0.083739         2.2786
  22   0.0000       0.083956         2.2846
  23   0.0000       0.250793         6.8244
  24   0.0000       0.261228         7.1084
  25   0.0000       0.289032         7.8650

MULLIKEN ATOMIC CHARGES
-----------------------
   0 C :   -0.128934
   1 H :    0.128165
   2 C :   -0.124069
   3 H :    0.125917
   4 C :   -0.125812
   5 H :    0.124734
   6 C :   -0.128935
   7 H :    0.128165
   8 C :   -0.124069
   9 H :    0.125917
  10 C :   -0.125813
  11 H :    0.124734
Sum of atomic charges:   -0.0000000

LOEWDIN ATOMIC CHARGES
----------------------
   0 C :   -0.136148
   1 H :    0.136025
   2 C :   -0.135167
   3 H :    0.135458
   4 C :   -0.135308
   5 H :    0.135140
   6 C :   -0.136148
   7 H :    0.136025
   8 C :   -0.135167
   9 H :    0.135458
  10 C :   -0.135308
  11 H :    0.135140

  Mayer bond orders larger than 0.1
B(  0-C ,  1-H ) :   0.9450 B(  0-C ,  2-C ) :   1.4707 B(  0-C , 10-C ) :   1.4719
B(  2-C ,  3-H ) :   0.9452 B(  2-C ,  4-C ) :   1.4730 B(  4-C ,  5-H ) :   0.9454
B(  4-C ,  6-C ) :   1.4719 B(  6-C ,  7-H ) :   0.9450 B(  6-C ,  8-C ) :   1.4707
B(  8-C ,  9-H ) :   0.9452 B(  8-C , 10-C ) :   1.4730 B( 10-C , 11-H ) :   0.9454

Dispersion correction           -0.002202484
FINAL SINGLE POINT ENERGY      -231.911236918799

DIPOLE MOMENT
-------------
                                X             Y             Z
Electronic contribution:     -0.00000      -0.00000       0.00000
Nuclear contribution   :      0.00000       0.00000       0.00000
                        -----------------------------------------
Total Dipole Moment    :      0.00000       0.00000       0.00000
                        -----------------------------------------
Magnitude (a.u.)       :      0.00000
Magnitude (Debye)      :      0.00000

                             ****ORCA TERMINATED NORMALLY****
TOTAL RUN TIME: 0 days 0 hours 1 minutes 23 seconds 508 msec
