                         Program Version 4.0.0.2 - RELEASE -
|  1> ! WB97X-D3 6-31G(d) VerySlowConv
|  2> ! KDIIS NOSOSCF
|  3> %base "Scan_20"
|  4>
|  5> %scf
|  6> maxiter 999
|  7> end
|  8>
|  9> * xyz 0 1
| 10> C          1.463012320546   -2.845068887010    0.000000028065
| 11> H          3.878141506142   -3.029959280327    0.000000019760
| 12> C          0.884834350791   -1.639516744276   -0.000000216939
| 13> H          2.252518518342    0.359601790222    0.000000117839
| 14> C         -0.448293675070   -1.537457638691   -0.000000190134
| 15> H         -1.495737093387    0.646551982013    0.000000044131
| 16> C         -1.203243249917   -2.640950988103   -0.000000040944
| 17> H         -3.618372453730   -2.456056105780    0.000000049564
| 18> C         -0.625064801528   -3.846502973153    0.000000204132
| 19> H         -1.992753404350   -5.845618197871   -0.000000035971
| 20> C          0.708062839266   -3.948561721909    0.000000181127
| 21> H          1.755505142895   -6.132571235116   -0.000000160629
| 22> **                         ****END OF INPUT****

CARTESIAN COORDINATES (ANGSTROEM)
---------------------------------
  C      1.463012   -2.845069    0.000000
  H      3.878142   -3.029959    0.000000
  C      0.884834   -1.639517   -0.000000
  H      2.252519    0.359602    0.000000
  C     -0.448294   -1.537458   -0.000000
  H     -1.495737    0.646552    0.000000
  C     -1.203243   -2.640951   -0.000000
  H     -3.618372   -2.456056    0.000000
  C     -0.625065   -3.846503    0.000000
  H     -1.992753   -5.845618   -0.000000
  C      0.708063   -3.948562    0.000000
  H      1.755505   -6.132571   -0.000000

 Total Charge           Charge          ....    0
 Multiplicity           Mult            ....    1
 Number of Electrons    NEL             ....   42
 Basis Dimension        Dim             ....   96

ORBITAL ENERGIES
----------------

  NO   OCC          E(Eh)            E(eV)
   0   2.0000     -10.386485      -282.6306
   1   2.0000     -10.386175      -282.6222
   2   2.0000     -10.386095      -282.6200
   3   2.0000     -10.385396      -282.6010
   4   2.0000     -10.385320      -282.5989
   5   2.0000     -10.385010      -282.5905
   6   2.0000      -1.055673       -28.7263
   7   2.0000      -0.904083       -24.6014
   8   2.0000      -0.904059       -24.6007
   9   2.0000      -0.716539       -19.4980
  10   2.0000      -0.716306       -19.4917
  11   2.0000      -0.614062       -16.7095
  12   2.0000      -0.540159       -14.6985
  13   2.0000      -0.526873       -14.3369
  14   2.0000      -0.395949       -10.7743
  15   2.0000      -0.395858       -10.7718
  16   2.0000      -0.393423       -10.7056
  17   2.0000      -0.393261       -10.7012
  18   2.0000      -0.352033        -9.5793
  19   2.0000      -0.324409        -8.8276
  20   2.0000      -0.324240        -8.8230
  21   0.0000      -0.140062        -3.8113
  22   0.0000      -0.100140        -2.7249
  23   0.0000      -0.100062        -2.7228
  24   0.0000      -0.043440        -1.1821
  25   0.0000       0.007506         0.2042

MULLIKEN ATOMIC CHARGES
-----------------------
   0 C :   -0.011712
   1 H :    0.011958
   2 C :   -0.011035
   3 H :    0.011767
   4 C :   -0.013166
   5 H :    0.012184
   6 C :   -0.011717
   7 H :    0.011960
   8 C :   -0.011029
   9 H :    0.011765
  10 C :   -0.013155
  11 H :    0.012180
Sum of atomic charges:    0.0000000

LOEWDIN ATOMIC CHARGES
----------------------
   0 C :   -0.017946
   1 H :    0.017853
   2 C :   -0.017794
   3 H :    0.017751
   4 C :   -0.017951
   5 H :    0.018085
   6 C :   -0.017951
   7 H :    0.017855
   8 C :   -0.017789
   9 H :    0.017749
  10 C :   -0.017942
  11 H :    0.018081

  Mayer bond orders larger than 0.1
B(  0-C ,  1-H ) :   0.6822 B(  0-C ,  2-C ) :   1.5538 B(  0-C , 10-C ) :   1.5556
B(  2-C ,  3-H ) :   0.6821 B(  2-C ,  4-C ) :   1.5555 B(  4-C ,  5-H ) :   0.6818
B(  4-C ,  6-C ) :   1.5556 B(  6-C ,  7-H ) :   0.6822 B(  6-C ,  8-C ) :   1.5538
B(  8-C ,  9-H ) :   0.6821 B(  8-C , 10-C ) :   1.5555 B( 10-C , 11-H ) :   0.6818

Dispersion correction           -0.003393688
FINAL SINGLE POINT ENERGY      -230.990687967434

DIPOLE MOMENT
-------------
                                X             Y             Z
Electronic contribution:      0.00000      -0.00000      -0.00000
Nuclear contribution   :     -0.00000       0.00001       0.00000
                        -----------------------------------------
Total Dipole Moment    :     -0.00000       0.00000       0.00000
                        -----------------------------------------
Magnitude (a.u.)       :      0.00000
Magnitude (Debye)      :      0.00001

                             ****ORCA TERMINATED NORMALLY****
TOTAL RUN TIME: 0 days 0 hours 0 minutes 47 seconds 630 msec
