                         Program Version 4.0.0.2 - RELEASE -
|  1> ! WB97X-D3 6-31G(d) VerySlowConv
|  2> ! KDIIS NOSOSCF
|  3> %base "Scan_21"
|  4>
|  5> %scf
|  6> maxiter 999
|  7> end
|  8>
|  9> * xyz 0 1
| 10> C          1.461663428577   -2.844955230434    0.000000376722
| 11> H          3.984271933169   -3.038093315838   -0.000000125808
| 12> C          0.884060575722   -1.640627342535   -0.000000055770
| 13> H          2.312628337031    0.447445083670    0.000000076228
| 14> C         -0.447709490709   -1.538678717523   -0.000000248540
| 15> H         -1.541764469578    0.742525572537    0.000000053597
| 16> C         -1.201892658726   -2.641044317809   -0.000000386485
| 17> H         -3.724502762942   -2.447940196966    0.000000191188
| 18> C         -0.624309801261   -3.845379650097    0.000000064995
| 19> H         -2.052847274138   -5.933473756806   -0.000000014700
| 20> C          0.707476696578   -3.947341824061    0.000000221313
| 21> H          1.801535486277   -6.228546304138   -0.000000152738
| 22> **                         ****END OF INPUT****

CARTESIAN COORDINATES (ANGSTROEM)
---------------------------------
  C      1.461663   -2.844955    0.000000
  H      3.984272   -3.038093   -0.000000
  C      0.884061   -1.640627   -0.000000
  H      2.312628    0.447445    0.000000
  C     -0.447709   -1.538679   -0.000000
  H     -1.541764    0.742526    0.000000
  C     -1.201893   -2.641044   -0.000000
  H     -3.724503   -2.447940    0.000000
  C     -0.624310   -3.845380    0.000000
  H     -2.052847   -5.933474   -0.000000
  C      0.707477   -3.947342    0.000000
  H      1.801535   -6.228546   -0.000000

 Total Charge           Charge          ....    0
 Multiplicity           Mult            ....    1
 Number of Electrons    NEL             ....   42
 Basis Dimension        Dim             ....   96

ORBITAL ENERGIES
----------------

  NO   OCC          E(Eh)            E(eV)
   0   2.0000     -10.388440      -282.6838
   1   2.0000     -10.388041      -282.6730
   2   2.0000     -10.388034      -282.6728
   3   2.0000     -10.387307      -282.6530
   4   2.0000     -10.387232      -282.6510
   5   2.0000     -10.386877      -282.6413
   6   2.0000      -1.057557       -28.7776
   7   2.0000      -0.906012       -24.6538
   8   2.0000      -0.905985       -24.6531
   9   2.0000      -0.718369       -19.5478
  10   2.0000      -0.718138       -19.5415
  11   2.0000      -0.616424       -16.7737
  12   2.0000      -0.542453       -14.7609
  13   2.0000      -0.527223       -14.3465
  14   2.0000      -0.395584       -10.7644
  15   2.0000      -0.395413       -10.7597
  16   2.0000      -0.390851       -10.6356
  17   2.0000      -0.390717       -10.6320
  18   2.0000      -0.344663        -9.3788
  19   2.0000      -0.318562        -8.6685
  20   2.0000      -0.318405        -8.6642
  21   0.0000      -0.147375        -4.0103
  22   0.0000      -0.113362        -3.0847
  23   0.0000      -0.113295        -3.0829
  24   0.0000      -0.054074        -1.4714
  25   0.0000      -0.001841        -0.0501

MULLIKEN ATOMIC CHARGES
-----------------------
   0 C :   -0.007442
   1 H :    0.008006
   2 C :   -0.007846
   3 H :    0.008277
   4 C :   -0.009382
   5 H :    0.008286
   6 C :   -0.007664
   7 H :    0.008093
   8 C :   -0.007682
   9 H :    0.008213
  10 C :   -0.008993
  11 H :    0.008133
Sum of atomic charges:    0.0000000

LOEWDIN ATOMIC CHARGES
----------------------
   0 C :   -0.012529
   1 H :    0.012490
   2 C :   -0.012774
   3 H :    0.012793
   4 C :   -0.012830
   5 H :    0.012765
   6 C :   -0.012729
   7 H :    0.012574
   8 C :   -0.012627
   9 H :    0.012730
  10 C :   -0.012480
  11 H :    0.012617

  Mayer bond orders larger than 0.1
B(  0-C ,  1-H ) :   0.6359 B(  0-C ,  2-C ) :   1.5767 B(  0-C , 10-C ) :   1.5780
B(  1-H ,  3-H ) :   0.1206 B(  1-H , 11-H ) :   0.1208 B(  2-C ,  3-H ) :   0.6357
B(  2-C ,  4-C ) :   1.5787 B(  3-H ,  5-H ) :   0.1208 B(  4-C ,  5-H ) :   0.6353
B(  4-C ,  6-C ) :   1.5780 B(  5-H ,  7-H ) :   0.1208 B(  6-C ,  7-H ) :   0.6359
B(  6-C ,  8-C ) :   1.5767 B(  7-H ,  9-H ) :   0.1206 B(  8-C ,  9-H ) :   0.6357
B(  8-C , 10-C ) :   1.5787 B(  9-H , 11-H ) :   0.1208 B( 10-C , 11-H ) :   0.6353

Dispersion correction           -0.003279944
FINAL SINGLE POINT ENERGY      -230.931088985818

DIPOLE MOMENT
-------------
                                X             Y             Z
Electronic contribution:     -0.00009       0.00016      -0.00000
Nuclear contribution   :      0.00003      -0.00005       0.00000
                        -----------------------------------------
Total Dipole Moment    :     -0.00006       0.00011       0.00000
                        -----------------------------------------
Magnitude (a.u.)       :      0.00013
Magnitude (Debye)      :      0.00033

                             ****ORCA TERMINATED NORMALLY****
TOTAL RUN TIME: 0 days 0 hours 0 minutes 50 seconds 130 msec
