                         Program Version 4.0.0.2 - RELEASE -
|  1> ! WB97X-D3 6-31G(d) VerySlowConv
|  2> ! KDIIS NOSOSCF
|  3> %base "Scan_22"
|  4>
|  5> %scf
|  6> maxiter 999
|  7> end
|  8>
|  9> * xyz 0 1
| 10> C          1.460762953784   -2.844883353954    0.000000586987
| 11> H          4.089596259059   -3.046161217397   -0.000000208406
| 12> C          0.883547614845   -1.641371552013   -0.000001256715
| 13> H          2.372277298284    0.534623565569    0.000000497904
| 14> C         -0.447319463407   -1.539493068213   -0.000001742236
| 15> H         -1.587443467335    0.837771713755    0.000000570159
| 16> C         -1.200992828582   -2.641110325995   -0.000000590897
| 17> H         -3.829829207775   -2.439881484775    0.000000261742
| 18> C         -0.623801764959   -3.844631158491    0.000001248443
| 19> H         -2.112487057443   -6.020657240262   -0.000000420429
| 20> C          0.707085266936   -3.946526126023    0.000001732647
| 21> H          1.847214396593   -6.323789752202   -0.000000679200
| 22> **                         ****END OF INPUT****

CARTESIAN COORDINATES (ANGSTROEM)
---------------------------------
  C      1.460763   -2.844883    0.000001
  H      4.089596   -3.046161   -0.000000
  C      0.883548   -1.641372   -0.000001
  H      2.372277    0.534624    0.000000
  C     -0.447319   -1.539493   -0.000002
  H     -1.587443    0.837772    0.000001
  C     -1.200993   -2.641110   -0.000001
  H     -3.829829   -2.439881    0.000000
  C     -0.623802   -3.844631    0.000001
  H     -2.112487   -6.020657   -0.000000
  C      0.707085   -3.946526    0.000002
  H      1.847214   -6.323790   -0.000001

 Total Charge           Charge          ....    0
 Multiplicity           Mult            ....    1
 Number of Electrons    NEL             ....   42
 Basis Dimension        Dim             ....   96

ORBITAL ENERGIES
----------------

  NO   OCC          E(Eh)            E(eV)
   0   2.0000     -10.389584      -282.7149
   1   2.0000     -10.389263      -282.7062
   2   2.0000     -10.389176      -282.7038
   3   2.0000     -10.388471      -282.6847
   4   2.0000     -10.388379      -282.6822
   5   2.0000     -10.388060      -282.6735
   6   2.0000      -1.058301       -28.7978
   7   2.0000      -0.907090       -24.6832
   8   2.0000      -0.907067       -24.6826
   9   2.0000      -0.719499       -19.5786
  10   2.0000      -0.719283       -19.5727
  11   2.0000      -0.617952       -16.8153
  12   2.0000      -0.543923       -14.8009
  13   2.0000      -0.527868       -14.3640
  14   2.0000      -0.397073       -10.8049
  15   2.0000      -0.396863       -10.7992
  16   2.0000      -0.386410       -10.5147
  17   2.0000      -0.386294       -10.5116
  18   2.0000      -0.337889        -9.1944
  19   2.0000      -0.313114        -8.5203
  20   2.0000      -0.312978        -8.5166
  21   0.0000      -0.153045        -4.1646
  22   0.0000      -0.125076        -3.4035
  23   0.0000      -0.125021        -3.4020
  24   0.0000      -0.062883        -1.7111
  25   0.0000      -0.009473        -0.2578

MULLIKEN ATOMIC CHARGES
-----------------------
   0 C :   -0.005209
   1 H :    0.004873
   2 C :   -0.004457
   3 H :    0.005186
   4 C :   -0.005717
   5 H :    0.005363
   6 C :   -0.005114
   7 H :    0.004838
   8 C :   -0.004520
   9 H :    0.005210
  10 C :   -0.005874
  11 H :    0.005422
Sum of atomic charges:   -0.0000000

LOEWDIN ATOMIC CHARGES
----------------------
   0 C :   -0.008386
   1 H :    0.008013
   2 C :   -0.008154
   3 H :    0.008337
   4 C :   -0.008264
   5 H :    0.008486
   6 C :   -0.008304
   7 H :    0.007979
   8 C :   -0.008209
   9 H :    0.008360
  10 C :   -0.008400
  11 H :    0.008543

  Mayer bond orders larger than 0.1
B(  0-C ,  1-H ) :   0.5858 B(  0-C ,  2-C ) :   1.6026 B(  0-C , 10-C ) :   1.6034
B(  1-H ,  3-H ) :   0.1444 B(  1-H , 11-H ) :   0.1447 B(  2-C ,  3-H ) :   0.5857
B(  2-C ,  4-C ) :   1.6032 B(  3-H ,  5-H ) :   0.1448 B(  4-C ,  5-H ) :   0.5853
B(  4-C ,  6-C ) :   1.6035 B(  5-H ,  7-H ) :   0.1447 B(  6-C ,  7-H ) :   0.5857
B(  6-C ,  8-C ) :   1.6026 B(  7-H ,  9-H ) :   0.1444 B(  8-C ,  9-H ) :   0.5857
B(  8-C , 10-C ) :   1.6032 B(  9-H , 11-H ) :   0.1448 B( 10-C , 11-H ) :   0.5853

Dispersion correction           -0.003195419
FINAL SINGLE POINT ENERGY      -230.879402427965

DIPOLE MOMENT
-------------
                                X             Y             Z
Electronic contribution:     -0.00002       0.00004      -0.00000
Nuclear contribution   :      0.00004      -0.00007       0.00000
                        -----------------------------------------
Total Dipole Moment    :      0.00002      -0.00003       0.00000
                        -----------------------------------------
Magnitude (a.u.)       :      0.00004
Magnitude (Debye)      :      0.00009

                             ****ORCA TERMINATED NORMALLY****
TOTAL RUN TIME: 0 days 0 hours 0 minutes 46 seconds 32 msec
