                         Program Version 4.0.0.2 - RELEASE -
|  1> ! WB97X-D3 6-31G(d) VerySlowConv
|  2> ! KDIIS NOSOSCF
|  3> %base "Scan_23"
|  4>
|  5> %scf
|  6> maxiter 999
|  7> end
|  8>
|  9> * xyz 0 1
| 10> C          1.460168840898   -2.844847475226    0.000000360024
| 11> H          4.194198142160   -3.054163589988   -0.000000146580
| 12> C          0.883220726170   -1.641868157205   -0.000001625188
| 13> H          2.431509271206    0.621212505664    0.000000642323
| 14> C         -0.447062670265   -1.540026895374   -0.000001853711
| 15> H         -1.632811640354    0.932367388190    0.000000616133
| 16> C         -1.200402379274   -2.641165220166   -0.000000364228
| 17> H         -3.934433828644   -2.431867982792    0.000000199216
| 18> C         -0.623456185625   -3.844145388026    0.000001617039
| 19> H         -2.171727699176   -6.107237107943   -0.000000563898
| 20> C          0.706828841086   -3.945987753275    0.000001845496
| 21> H          1.892578581816   -6.418380323858   -0.000000726626
| 22> **                         ****END OF INPUT****

CARTESIAN COORDINATES (ANGSTROEM)
---------------------------------
  C      1.460169   -2.844847    0.000000
  H      4.194198   -3.054164   -0.000000
  C      0.883221   -1.641868   -0.000002
  H      2.431509    0.621213    0.000001
  C     -0.447063   -1.540027   -0.000002
  H     -1.632812    0.932367    0.000001
  C     -1.200402   -2.641165   -0.000000
  H     -3.934434   -2.431868    0.000000
  C     -0.623456   -3.844145    0.000002
  H     -2.171728   -6.107237   -0.000001
  C      0.706829   -3.945988    0.000002
  H      1.892579   -6.418380   -0.000001

 Total Charge           Charge          ....    0
 Multiplicity           Mult            ....    1
 Number of Electrons    NEL             ....   42
 Basis Dimension        Dim             ....   96

ORBITAL ENERGIES
----------------

  NO   OCC          E(Eh)            E(eV)
   0   2.0000     -10.390373      -282.7364
   1   2.0000     -10.390025      -282.7270
   2   2.0000     -10.389997      -282.7262
   3   2.0000     -10.389228      -282.7053
   4   2.0000     -10.389196      -282.7044
   5   2.0000     -10.388848      -282.6949
   6   2.0000      -1.058350       -28.7992
   7   2.0000      -0.907681       -24.6993
   8   2.0000      -0.907642       -24.6982
   9   2.0000      -0.720238       -19.5987
  10   2.0000      -0.720028       -19.5930
  11   2.0000      -0.618999       -16.8438
  12   2.0000      -0.544904       -14.8276
  13   2.0000      -0.528805       -14.3895
  14   2.0000      -0.398137       -10.8339
  15   2.0000      -0.397948       -10.8287
  16   2.0000      -0.382752       -10.4152
  17   2.0000      -0.382606       -10.4112
  18   2.0000      -0.331673        -9.0253
  19   2.0000      -0.308097        -8.3838
  20   2.0000      -0.307992        -8.3809
  21   0.0000      -0.157449        -4.2844
  22   0.0000      -0.135538        -3.6882
  23   0.0000      -0.135451        -3.6858
  24   0.0000      -0.070108        -1.9077
  25   0.0000      -0.015767        -0.4290

MULLIKEN ATOMIC CHARGES
-----------------------
   0 C :   -0.002706
   1 H :    0.002235
   2 C :   -0.001998
   3 H :    0.002577
   4 C :   -0.002648
   5 H :    0.002578
   6 C :   -0.002643
   7 H :    0.002215
   8 C :   -0.002054
   9 H :    0.002595
  10 C :   -0.002768
  11 H :    0.002616
Sum of atomic charges:   -0.0000000

LOEWDIN ATOMIC CHARGES
----------------------
   0 C :   -0.004398
   1 H :    0.004183
   2 C :   -0.004416
   3 H :    0.004509
   4 C :   -0.004346
   5 H :    0.004501
   6 C :   -0.004342
   7 H :    0.004163
   8 C :   -0.004466
   9 H :    0.004527
  10 C :   -0.004453
  11 H :    0.004539

  Mayer bond orders larger than 0.1
B(  0-C ,  1-H ) :   0.5323 B(  0-C ,  2-C ) :   1.6307 B(  0-C , 10-C ) :   1.6312
B(  1-H ,  3-H ) :   0.1705 B(  1-H , 11-H ) :   0.1710 B(  2-C ,  3-H ) :   0.5324
B(  2-C ,  4-C ) :   1.6304 B(  3-H ,  5-H ) :   0.1709 B(  4-C ,  5-H ) :   0.5319
B(  4-C ,  6-C ) :   1.6312 B(  5-H ,  7-H ) :   0.1710 B(  6-C ,  7-H ) :   0.5322
B(  6-C ,  8-C ) :   1.6307 B(  7-H ,  9-H ) :   0.1705 B(  8-C ,  9-H ) :   0.5324
B(  8-C , 10-C ) :   1.6304 B(  9-H , 11-H ) :   0.1709 B( 10-C , 11-H ) :   0.5319

Dispersion correction           -0.003126782
FINAL SINGLE POINT ENERGY      -230.834655991798

DIPOLE MOMENT
-------------
                                X             Y             Z
Electronic contribution:     -0.00002       0.00004      -0.00000
Nuclear contribution   :      0.00001      -0.00002       0.00000
                        -----------------------------------------
Total Dipole Moment    :     -0.00001       0.00002      -0.00000
                        -----------------------------------------
Magnitude (a.u.)       :      0.00002
Magnitude (Debye)      :      0.00006

                             ****ORCA TERMINATED NORMALLY****
TOTAL RUN TIME: 0 days 0 hours 1 minutes 55 seconds 272 msec
