                         Program Version 4.0.0.2 - RELEASE -
|  1> ! WB97X-D3 6-31G(d) VerySlowConv
|  2> ! KDIIS NOSOSCF
|  3> %base "Scan_24"
|  4>
|  5> %scf
|  6> maxiter 999
|  7> end
|  8>
|  9> * xyz 0 1
| 10> C          1.459782936974   -2.844817370764   -0.000000595700
| 11> H          4.298167456799   -3.062126137880    0.000000160171
| 12> C          0.883003814217   -1.642184240630   -0.000002615741
| 13> H          2.490391941406    0.707274014745    0.000000985025
| 14> C         -0.446897370960   -1.540372206691   -0.000001867810
| 15> H         -1.677904420820    1.026390968308    0.000000634706
| 16> C         -1.200018738755   -2.641195134320    0.000000586480
| 17> H         -4.038405287538   -2.423911174141   -0.000000104063
| 18> C         -0.623238387862   -3.843827865063    0.000002610042
| 19> H         -2.230604250733   -6.193301234538   -0.000000906640
| 20> C          0.706661715076   -3.945638801804    0.000001860887
| 21> H          1.937670592196   -6.512400817223   -0.000000747358
| 22> **                         ****END OF INPUT****

CARTESIAN COORDINATES (ANGSTROEM)
---------------------------------
  C      1.459783   -2.844817   -0.000001
  H      4.298167   -3.062126    0.000000
  C      0.883004   -1.642184   -0.000003
  H      2.490392    0.707274    0.000001
  C     -0.446897   -1.540372   -0.000002
  H     -1.677904    1.026391    0.000001
  C     -1.200019   -2.641195    0.000001
  H     -4.038405   -2.423911   -0.000000
  C     -0.623238   -3.843828    0.000003
  H     -2.230604   -6.193301   -0.000001
  C      0.706662   -3.945639    0.000002
  H      1.937671   -6.512401   -0.000001

 Total Charge           Charge          ....    0
 Multiplicity           Mult            ....    1
 Number of Electrons    NEL             ....   42
 Basis Dimension        Dim             ....   96

ORBITAL ENERGIES
----------------

  NO   OCC          E(Eh)            E(eV)
   0   2.0000     -10.390397      -282.7371
   1   2.0000     -10.390060      -282.7279
   2   2.0000     -10.390015      -282.7267
   3   2.0000     -10.389254      -282.7060
   4   2.0000     -10.389208      -282.7047
   5   2.0000     -10.388868      -282.6955
   6   2.0000      -1.057496       -28.7759
   7   2.0000      -0.907508       -24.6945
   8   2.0000      -0.907470       -24.6935
   9   2.0000      -0.720296       -19.6003
  10   2.0000      -0.720085       -19.5945
  11   2.0000      -0.619278       -16.8514
  12   2.0000      -0.545159       -14.8345
  13   2.0000      -0.529716       -14.4143
  14   2.0000      -0.398553       -10.8452
  15   2.0000      -0.398361       -10.8399
  16   2.0000      -0.379623       -10.3301
  17   2.0000      -0.379441       -10.3251
  18   2.0000      -0.325792        -8.8653
  19   2.0000      -0.303319        -8.2537
  20   2.0000      -0.303226        -8.2512
  21   0.0000      -0.160738        -4.3739
  22   0.0000      -0.144783        -3.9398
  23   0.0000      -0.144685        -3.9371
  24   0.0000      -0.075815        -2.0630
  25   0.0000      -0.020752        -0.5647

MULLIKEN ATOMIC CHARGES
-----------------------
   0 C :   -0.000852
   1 H :    0.000302
   2 C :   -0.000165
   3 H :    0.000566
   4 C :    0.000040
   5 H :    0.000121
   6 C :   -0.000827
   7 H :    0.000296
   8 C :   -0.000182
   9 H :    0.000571
  10 C :   -0.000003
  11 H :    0.000133
Sum of atomic charges:   -0.0000000

LOEWDIN ATOMIC CHARGES
----------------------
   0 C :   -0.001381
   1 H :    0.001260
   2 C :   -0.001389
   3 H :    0.001505
   4 C :   -0.001062
   5 H :    0.001079
   6 C :   -0.001358
   7 H :    0.001253
   8 C :   -0.001405
   9 H :    0.001510
  10 C :   -0.001101
  11 H :    0.001090

  Mayer bond orders larger than 0.1
B(  0-C ,  1-H ) :   0.4749 B(  0-C ,  2-C ) :   1.6607 B(  0-C ,  6-C ) :   0.1004
B(  0-C , 10-C ) :   1.6606 B(  1-H ,  3-H ) :   0.1992 B(  1-H , 11-H ) :   0.1997
B(  2-C ,  3-H ) :   0.4751 B(  2-C ,  4-C ) :   1.6597 B(  2-C ,  8-C ) :   0.1002
B(  3-H ,  5-H ) :   0.1996 B(  4-C ,  5-H ) :   0.4747 B(  4-C ,  6-C ) :   1.6606
B(  4-C , 10-C ) :   0.1004 B(  5-H ,  7-H ) :   0.1997 B(  6-C ,  7-H ) :   0.4749
B(  6-C ,  8-C ) :   1.6607 B(  7-H ,  9-H ) :   0.1992 B(  8-C ,  9-H ) :   0.4751
B(  8-C , 10-C ) :   1.6597 B(  9-H , 11-H ) :   0.1996 B( 10-C , 11-H ) :   0.4747

Dispersion correction           -0.003050120
FINAL SINGLE POINT ENERGY      -230.796069279081

DIPOLE MOMENT
-------------
                                X             Y             Z
Electronic contribution:     -0.00003       0.00006      -0.00000
Nuclear contribution   :      0.00002      -0.00003       0.00000
                        -----------------------------------------
Total Dipole Moment    :     -0.00002       0.00003       0.00000
                        -----------------------------------------
Magnitude (a.u.)       :      0.00003
Magnitude (Debye)      :      0.00008

                             ****ORCA TERMINATED NORMALLY****
TOTAL RUN TIME: 0 days 0 hours 1 minutes 46 seconds 899 msec
