                         Program Version 4.0.0.2 - RELEASE -
|  1> ! WB97X-D3 6-31G(d) VerySlowConv
|  2> ! KDIIS NOSOSCF
|  3> %base "Scan_25"
|  4>
|  5> %scf
|  6> maxiter 999
|  7> end
|  8>
|  9> * xyz 0 1
| 10> C          1.459548879748   -2.844789666605   -0.000000882437
| 11> H          4.401625452095   -3.070055655288    0.000000272794
| 12> C          0.882861174901   -1.642379029277   -0.000003364381
| 13> H          2.548983630879    0.792902547359    0.000001230644
| 14> C         -0.446793335963   -1.540594496057   -0.000002498243
| 15> H         -1.722768457113    1.119940863752    0.000000870747
| 16> C         -1.199783235880   -2.641205647081    0.000000874942
| 17> H         -4.141864109627   -2.415998467062   -0.000000217767
| 18> C         -0.623111474630   -3.843622502299    0.000003356497
| 19> H         -2.289180896943   -6.278940539068   -0.000001149102
| 20> C          0.706556077606   -3.945417093302    0.000002490279
| 21> H          1.982536294927   -6.605950315071   -0.000000983972
| 22> **                         ****END OF INPUT****

CARTESIAN COORDINATES (ANGSTROEM)
---------------------------------
  C      1.459549   -2.844790   -0.000001
  H      4.401625   -3.070056    0.000000
  C      0.882861   -1.642379   -0.000003
  H      2.548984    0.792903    0.000001
  C     -0.446793   -1.540594   -0.000002
  H     -1.722768    1.119941    0.000001
  C     -1.199783   -2.641206    0.000001
  H     -4.141864   -2.415998   -0.000000
  C     -0.623111   -3.843623    0.000003
  H     -2.289181   -6.278941   -0.000001
  C      0.706556   -3.945417    0.000002
  H      1.982536   -6.605950   -0.000001

 Total Charge           Charge          ....    0
 Multiplicity           Mult            ....    1
 Number of Electrons    NEL             ....   42
 Basis Dimension        Dim             ....   96

ORBITAL ENERGIES
----------------

  NO   OCC          E(Eh)            E(eV)
   0   2.0000     -10.389823      -282.7214
   1   2.0000     -10.389503      -282.7128
   2   2.0000     -10.389420      -282.7105
   3   2.0000     -10.388693      -282.6907
   4   2.0000     -10.388604      -282.6883
   5   2.0000     -10.388282      -282.6795
   6   2.0000      -1.055965       -28.7343
   7   2.0000      -0.906758       -24.6741
   8   2.0000      -0.906734       -24.6735
   9   2.0000      -0.719842       -19.5879
  10   2.0000      -0.719623       -19.5819
  11   2.0000      -0.618986       -16.8435
  12   2.0000      -0.544873       -14.8267
  13   2.0000      -0.530566       -14.4374
  14   2.0000      -0.398478       -10.8431
  15   2.0000      -0.398272       -10.8375
  16   2.0000      -0.377002       -10.2587
  17   2.0000      -0.376776       -10.2526
  18   2.0000      -0.320227        -8.7138
  19   2.0000      -0.298778        -8.1302
  20   2.0000      -0.298691        -8.1278
  21   0.0000      -0.163178        -4.4403
  22   0.0000      -0.152973        -4.1626
  23   0.0000      -0.152861        -4.1596
  24   0.0000      -0.080178        -2.1818
  25   0.0000      -0.024588        -0.6691

MULLIKEN ATOMIC CHARGES
-----------------------
   0 C :    0.000835
   1 H :   -0.001312
   2 C :    0.001904
   3 H :   -0.001459
   4 C :    0.002150
   5 H :   -0.002108
   6 C :    0.000852
   7 H :   -0.001316
   8 C :    0.001891
   9 H :   -0.001456
  10 C :    0.002119
  11 H :   -0.002100
Sum of atomic charges:   -0.0000000

LOEWDIN ATOMIC CHARGES
----------------------
   0 C :    0.001078
   1 H :   -0.001085
   2 C :    0.001358
   3 H :   -0.001237
   4 C :    0.001751
   5 H :   -0.001858
   6 C :    0.001091
   7 H :   -0.001089
   8 C :    0.001347
   9 H :   -0.001233
  10 C :    0.001727
  11 H :   -0.001850

  Mayer bond orders larger than 0.1
B(  0-C ,  1-H ) :   0.4141 B(  0-C ,  2-C ) :   1.6917 B(  0-C ,  6-C ) :   0.1046
B(  0-C , 10-C ) :   1.6918 B(  1-H ,  3-H ) :   0.2301 B(  1-H , 11-H ) :   0.2307
B(  2-C ,  3-H ) :   0.4144 B(  2-C ,  4-C ) :   1.6908 B(  2-C ,  8-C ) :   0.1044
B(  3-H ,  5-H ) :   0.2305 B(  4-C ,  5-H ) :   0.4139 B(  4-C ,  6-C ) :   1.6918
B(  4-C , 10-C ) :   0.1046 B(  5-H ,  7-H ) :   0.2308 B(  6-C ,  7-H ) :   0.4141
B(  6-C ,  8-C ) :   1.6917 B(  7-H ,  9-H ) :   0.2301 B(  8-C ,  9-H ) :   0.4144
B(  8-C , 10-C ) :   1.6907 B(  9-H , 11-H ) :   0.2304 B( 10-C , 11-H ) :   0.4139

Dispersion correction           -0.002941530
FINAL SINGLE POINT ENERGY      -230.763055716357

DIPOLE MOMENT
-------------
                                X             Y             Z
Electronic contribution:     -0.00006       0.00010      -0.00000
Nuclear contribution   :      0.00005      -0.00008       0.00000
                        -----------------------------------------
Total Dipole Moment    :     -0.00001       0.00002       0.00000
                        -----------------------------------------
Magnitude (a.u.)       :      0.00002
Magnitude (Debye)      :      0.00006

                             ****ORCA TERMINATED NORMALLY****
TOTAL RUN TIME: 0 days 0 hours 0 minutes 57 seconds 18 msec
