                         Program Version 4.0.0.2 - RELEASE -
|  1> ! WB97X-D3 6-31G(d) VerySlowConv
|  2> ! KDIIS NOSOSCF
|  3> %base "Scan_26"
|  4>
|  5> %scf
|  6> maxiter 999
|  7> end
|  8>
|  9> * xyz 0 1
| 10> C          1.459401641948   -2.844782213668   -0.000001296079
| 11> H          4.504668311293   -3.077943606263    0.000000403577
| 12> C          0.882780724360   -1.642501536428   -0.000004556207
| 13> H          2.607336631412    0.878197007657    0.000001635476
| 14> C         -0.446731388350   -1.540723230234   -0.000003239267
| 15> H         -1.767459729774    1.213127130312    0.000001119783
| 16> C         -1.199638647456   -2.641219936677    0.000001288162
| 17> H         -4.244909324145   -2.408109347074   -0.000000349002
| 18> C         -0.623023710077   -3.843502979957    0.000004547592
| 19> H         -2.347533749264   -6.364232795500   -0.000001550889
| 20> C          0.706493379517   -3.945285160943    0.000003230510
| 21> H          2.027225860536   -6.699133331224   -0.000001233657
| 22> **                         ****END OF INPUT****

CARTESIAN COORDINATES (ANGSTROEM)
---------------------------------
  C      1.459402   -2.844782   -0.000001
  H      4.504668   -3.077944    0.000000
  C      0.882781   -1.642502   -0.000005
  H      2.607337    0.878197    0.000002
  C     -0.446731   -1.540723   -0.000003
  H     -1.767460    1.213127    0.000001
  C     -1.199639   -2.641220    0.000001
  H     -4.244909   -2.408109   -0.000000
  C     -0.623024   -3.843503    0.000005
  H     -2.347534   -6.364233   -0.000002
  C      0.706493   -3.945285    0.000003
  H      2.027226   -6.699133   -0.000001

 Total Charge           Charge          ....    0
 Multiplicity           Mult            ....    1
 Number of Electrons    NEL             ....   42
 Basis Dimension        Dim             ....   96

ORBITAL ENERGIES
----------------

  NO   OCC          E(Eh)            E(eV)
   0   2.0000     -10.388484      -282.6850
   1   2.0000     -10.388146      -282.6758
   2   2.0000     -10.388101      -282.6746
   3   2.0000     -10.387332      -282.6537
   4   2.0000     -10.387286      -282.6524
   5   2.0000     -10.386941      -282.6430
   6   2.0000      -1.053677       -28.6720
   7   2.0000      -0.905331       -24.6353
   8   2.0000      -0.905290       -24.6342
   9   2.0000      -0.718716       -19.5573
  10   2.0000      -0.718517       -19.5518
  11   2.0000      -0.617988       -16.8163
  12   2.0000      -0.543928       -14.8010
  13   2.0000      -0.531085       -14.4515
  14   2.0000      -0.397765       -10.8237
  15   2.0000      -0.397557       -10.8181
  16   2.0000      -0.374682       -10.1956
  17   2.0000      -0.374453       -10.1894
  18   2.0000      -0.315027        -8.5723
  19   2.0000      -0.294484        -8.0133
  20   2.0000      -0.294431        -8.0119
  21   0.0000      -0.164921        -4.4877
  22   0.0000      -0.160039        -4.3549
  23   0.0000      -0.159944        -4.3523
  24   0.0000      -0.083123        -2.2619
  25   0.0000      -0.027133        -0.7383

MULLIKEN ATOMIC CHARGES
-----------------------
   0 C :    0.003014
   1 H :   -0.003059
   2 C :    0.002930
   3 H :   -0.002891
   4 C :    0.003358
   5 H :   -0.003323
   6 C :    0.003028
   7 H :   -0.003061
   8 C :    0.002896
   9 H :   -0.002886
  10 C :    0.003310
  11 H :   -0.003315
Sum of atomic charges:   -0.0000000

LOEWDIN ATOMIC CHARGES
----------------------
   0 C :    0.003401
   1 H :   -0.003344
   2 C :    0.003308
   3 H :   -0.003197
   4 C :    0.003479
   5 H :   -0.003623
   6 C :    0.003413
   7 H :   -0.003347
   8 C :    0.003278
   9 H :   -0.003191
  10 C :    0.003437
  11 H :   -0.003614

  Mayer bond orders larger than 0.1
B(  0-C ,  1-H ) :   0.3512 B(  0-C ,  2-C ) :   1.7236 B(  0-C ,  6-C ) :   0.1098
B(  0-C , 10-C ) :   1.7231 B(  1-H ,  3-H ) :   0.2625 B(  1-H , 11-H ) :   0.2631
B(  2-C ,  3-H ) :   0.3515 B(  2-C ,  4-C ) :   1.7230 B(  2-C ,  8-C ) :   0.1096
B(  3-H ,  5-H ) :   0.2626 B(  4-C ,  5-H ) :   0.3512 B(  4-C ,  6-C ) :   1.7231
B(  4-C , 10-C ) :   0.1097 B(  5-H ,  7-H ) :   0.2631 B(  6-C ,  7-H ) :   0.3512
B(  6-C ,  8-C ) :   1.7236 B(  7-H ,  9-H ) :   0.2625 B(  8-C ,  9-H ) :   0.3515
B(  8-C , 10-C ) :   1.7230 B(  9-H , 11-H ) :   0.2626 B( 10-C , 11-H ) :   0.3512

Dispersion correction           -0.002790405
FINAL SINGLE POINT ENERGY      -230.735026021262

DIPOLE MOMENT
-------------
                                X             Y             Z
Electronic contribution:     -0.00006       0.00015      -0.00000
Nuclear contribution   :      0.00004      -0.00007       0.00000
                        -----------------------------------------
Total Dipole Moment    :     -0.00002       0.00008      -0.00000
                        -----------------------------------------
Magnitude (a.u.)       :      0.00008
Magnitude (Debye)      :      0.00021

                             ****ORCA TERMINATED NORMALLY****
TOTAL RUN TIME: 0 days 0 hours 1 minutes 4 seconds 431 msec
