                         Program Version 4.0.0.2 - RELEASE -
|  1> ! WB97X-D3 6-31G(d) VerySlowConv
|  2> ! KDIIS NOSOSCF
|  3> %base "Scan_27"
|  4>
|  5> %scf
|  6> maxiter 999
|  7> end
|  8>
|  9> * xyz 0 1
| 10> C          1.459312844787   -2.844775516482   -0.000001867284
| 11> H          4.607396074313   -3.085810583053    0.000000582457
| 12> C          0.882732780534   -1.642572983791   -0.000005892402
| 13> H          2.665514813054    0.963231446848    0.000002084337
| 14> C         -0.446694202434   -1.540800248201   -0.000003951862
| 15> H         -1.812014195264    1.306027886380    0.000001359635
| 16> C         -1.199552877641   -2.641227248553    0.000001858289
| 17> H         -4.347640433091   -2.400246859162   -0.000000527404
| 18> C         -0.622972776833   -3.843430990020    0.000005882940
| 19> H         -2.405707053980   -6.449267985201   -0.000001996223
| 20> C          0.706456194083   -3.945205127670    0.000003942290
| 21> H          2.071778832472   -6.792031791094   -0.000001474771
| 22> **                         ****END OF INPUT****

CARTESIAN COORDINATES (ANGSTROEM)
---------------------------------
  C      1.459313   -2.844776   -0.000002
  H      4.607396   -3.085811    0.000001
  C      0.882733   -1.642573   -0.000006
  H      2.665515    0.963231    0.000002
  C     -0.446694   -1.540800   -0.000004
  H     -1.812014    1.306028    0.000001
  C     -1.199553   -2.641227    0.000002
  H     -4.347640   -2.400247   -0.000001
  C     -0.622973   -3.843431    0.000006
  H     -2.405707   -6.449268   -0.000002
  C      0.706456   -3.945205    0.000004
  H      2.071779   -6.792032   -0.000001

 Total Charge           Charge          ....    0
 Multiplicity           Mult            ....    1
 Number of Electrons    NEL             ....   42
 Basis Dimension        Dim             ....   96

ORBITAL ENERGIES
----------------

  NO   OCC          E(Eh)            E(eV)
   0   2.0000     -10.386704      -282.6366
   1   2.0000     -10.386419      -282.6288
   2   2.0000     -10.386254      -282.6243
   3   2.0000     -10.385583      -282.6061
   4   2.0000     -10.385435      -282.6020
   5   2.0000     -10.385135      -282.5939
   6   2.0000      -1.051010       -28.5994
   7   2.0000      -0.903521       -24.5861
   8   2.0000      -0.903463       -24.5845
   9   2.0000      -0.717209       -19.5162
  10   2.0000      -0.717030       -19.5114
  11   2.0000      -0.616574       -16.7778
  12   2.0000      -0.542597       -14.7648
  13   2.0000      -0.531359       -14.4590
  14   2.0000      -0.396689       -10.7945
  15   2.0000      -0.396440       -10.7877
  16   2.0000      -0.372699       -10.1417
  17   2.0000      -0.372465       -10.1353
  18   2.0000      -0.310230        -8.4418
  19   2.0000      -0.290497        -7.9048
  20   2.0000      -0.290455        -7.9037
  21   0.0000      -0.166168        -4.5217
  22   0.0000      -0.166103        -4.5199
  23   0.0000      -0.165999        -4.5171
  24   0.0000      -0.084914        -2.3106
  25   0.0000      -0.028758        -0.7826

MULLIKEN ATOMIC CHARGES
-----------------------
   0 C :    0.003982
   1 H :   -0.004240
   2 C :    0.004694
   3 H :   -0.004064
   4 C :    0.004278
   5 H :   -0.004589
   6 C :    0.003957
   7 H :   -0.004237
   8 C :    0.004623
   9 H :   -0.004056
  10 C :    0.004233
  11 H :   -0.004583
Sum of atomic charges:   -0.0000000

LOEWDIN ATOMIC CHARGES
----------------------
   0 C :    0.004950
   1 H :   -0.004859
   2 C :    0.005022
   3 H :   -0.004708
   4 C :    0.004870
   5 H :   -0.005222
   6 C :    0.004928
   7 H :   -0.004856
   8 C :    0.004961
   9 H :   -0.004700
  10 C :    0.004830
  11 H :   -0.005217

  Mayer bond orders larger than 0.1
B(  0-C ,  1-H ) :   0.2882 B(  0-C ,  2-C ) :   1.7548 B(  0-C ,  6-C ) :   0.1158
B(  0-C , 10-C ) :   1.7548 B(  1-H ,  3-H ) :   0.2951 B(  1-H , 11-H ) :   0.2956
B(  2-C ,  3-H ) :   0.2888 B(  2-C ,  4-C ) :   1.7537 B(  2-C ,  8-C ) :   0.1154
B(  3-H ,  5-H ) :   0.2949 B(  4-C ,  5-H ) :   0.2885 B(  4-C ,  6-C ) :   1.7548
B(  4-C , 10-C ) :   0.1155 B(  5-H ,  7-H ) :   0.2956 B(  6-C ,  7-H ) :   0.2882
B(  6-C ,  8-C ) :   1.7548 B(  7-H ,  9-H ) :   0.2951 B(  8-C ,  9-H ) :   0.2888
B(  8-C , 10-C ) :   1.7537 B(  9-H , 11-H ) :   0.2949 B( 10-C , 11-H ) :   0.2885

Dispersion correction           -0.002605104
FINAL SINGLE POINT ENERGY      -230.711529990239

DIPOLE MOMENT
-------------
                                X             Y             Z
Electronic contribution:      0.00003       0.00023      -0.00000
Nuclear contribution   :      0.00004      -0.00007       0.00000
                        -----------------------------------------
Total Dipole Moment    :      0.00007       0.00015      -0.00000
                        -----------------------------------------
Magnitude (a.u.)       :      0.00017
Magnitude (Debye)      :      0.00043

                             ****ORCA TERMINATED NORMALLY****
TOTAL RUN TIME: 0 days 0 hours 1 minutes 3 seconds 918 msec
