                         Program Version 4.0.0.2 - RELEASE -
|  1> ! WB97X-D3 6-31G(d) VerySlowConv
|  2> ! KDIIS NOSOSCF
|  3> %base "Scan_28"
|  4>
|  5> %scf
|  6> maxiter 999
|  7> end
|  8>
|  9> * xyz 0 1
| 10> C          1.459511775430   -2.844796533506   -0.000001822948
| 11> H          4.710056165575   -3.093665425278    0.000000591246
| 12> C          0.882852958803   -1.642402634786   -0.000006931332
| 13> H          2.723653404894    1.048215655041    0.000002432130
| 14> C         -0.446784976624   -1.540606976037   -0.000005094932
| 15> H         -1.856543898186    1.398874264313    0.000001738722
| 16> C         -1.199753937730   -2.641216554951    0.000001812770
| 17> H         -4.450300890743   -2.392384290632   -0.000000534142
| 18> C         -0.623083011049   -3.843607588635    0.000006921134
| 19> H         -2.463852074603   -6.534247386317   -0.000002341245
| 20> C          0.706547123183   -3.945395774332    0.000005084283
| 21> H          2.116307361050   -6.884876754881   -0.000001855685
| 22> **                         ****END OF INPUT****

CARTESIAN COORDINATES (ANGSTROEM)
---------------------------------
  C      1.459512   -2.844797   -0.000002
  H      4.710056   -3.093665    0.000001
  C      0.882853   -1.642403   -0.000007
  H      2.723653    1.048216    0.000002
  C     -0.446785   -1.540607   -0.000005
  H     -1.856544    1.398874    0.000002
  C     -1.199754   -2.641217    0.000002
  H     -4.450301   -2.392384   -0.000001
  C     -0.623083   -3.843608    0.000007
  H     -2.463852   -6.534247   -0.000002
  C      0.706547   -3.945396    0.000005
  H      2.116307   -6.884877   -0.000002

 Total Charge           Charge          ....    0
 Multiplicity           Mult            ....    1
 Number of Electrons    NEL             ....   42
 Basis Dimension        Dim             ....   96

ORBITAL ENERGIES
----------------

  NO   OCC          E(Eh)            E(eV)
   0   2.0000     -10.384455      -282.5754
   1   2.0000     -10.384102      -282.5658
   2   2.0000     -10.384001      -282.5630
   3   2.0000     -10.383296      -282.5438
   4   2.0000     -10.383196      -282.5411
   5   2.0000     -10.382834      -282.5313
   6   2.0000      -1.047833       -28.5130
   7   2.0000      -0.901219       -24.5234
   8   2.0000      -0.901170       -24.5221
   9   2.0000      -0.715240       -19.4627
  10   2.0000      -0.715052       -19.4575
  11   2.0000      -0.614622       -16.7247
  12   2.0000      -0.540752       -14.7146
  13   2.0000      -0.531111       -14.4523
  14   2.0000      -0.395119       -10.7517
  15   2.0000      -0.394882       -10.7453
  16   2.0000      -0.370849       -10.0913
  17   2.0000      -0.370536       -10.0828
  18   2.0000      -0.305955        -8.3254
  19   2.0000      -0.286914        -7.8073
  20   2.0000      -0.286866        -7.8060
  21   0.0000      -0.171173        -4.6579
  22   0.0000      -0.171066        -4.6549
  23   0.0000      -0.167130        -4.5478
  24   0.0000      -0.085723        -2.3326
  25   0.0000      -0.029506        -0.8029

MULLIKEN ATOMIC CHARGES
-----------------------
   0 C :    0.004890
   1 H :   -0.004628
   2 C :    0.005265
   3 H :   -0.004938
   4 C :    0.004866
   5 H :   -0.005739
   6 C :    0.004859
   7 H :   -0.004625
   8 C :    0.005567
   9 H :   -0.004956
  10 C :    0.005201
  11 H :   -0.005760
Sum of atomic charges:   -0.0000000

LOEWDIN ATOMIC CHARGES
----------------------
   0 C :    0.005742
   1 H :   -0.005432
   2 C :    0.005898
   3 H :   -0.005742
   4 C :    0.005824
   5 H :   -0.006541
   6 C :    0.005715
   7 H :   -0.005429
   8 C :    0.006166
   9 H :   -0.005759
  10 C :    0.006119
  11 H :   -0.006561

  Mayer bond orders larger than 0.1
B(  0-C ,  1-H ) :   0.2292 B(  0-C ,  2-C ) :   1.7834 B(  0-C ,  6-C ) :   0.1220
B(  0-C , 10-C ) :   1.7832 B(  1-H ,  3-H ) :   0.3257 B(  1-H , 11-H ) :   0.3262
B(  2-C ,  3-H ) :   0.2297 B(  2-C ,  4-C ) :   1.7825 B(  2-C ,  8-C ) :   0.1217
B(  3-H ,  5-H ) :   0.3254 B(  4-C ,  5-H ) :   0.2296 B(  4-C ,  6-C ) :   1.7832
B(  4-C , 10-C ) :   0.1217 B(  5-H ,  7-H ) :   0.3262 B(  6-C ,  7-H ) :   0.2292
B(  6-C ,  8-C ) :   1.7834 B(  7-H ,  9-H ) :   0.3257 B(  8-C ,  9-H ) :   0.2297
B(  8-C , 10-C ) :   1.7825 B(  9-H , 11-H ) :   0.3254 B( 10-C , 11-H ) :   0.2296

Dispersion correction           -0.002404608
FINAL SINGLE POINT ENERGY      -230.692092995148

DIPOLE MOMENT
-------------
                                X             Y             Z
Electronic contribution:     -0.00003      -0.00105      -0.00000
Nuclear contribution   :      0.00003      -0.00005       0.00000
                        -----------------------------------------
Total Dipole Moment    :      0.00000      -0.00110       0.00000
                        -----------------------------------------
Magnitude (a.u.)       :      0.00110
Magnitude (Debye)      :      0.00279

                             ****ORCA TERMINATED NORMALLY****
TOTAL RUN TIME: 0 days 0 hours 1 minutes 2 seconds 347 msec
