                         Program Version 4.0.0.2 - RELEASE -
|  1> ! WB97X-D3 6-31G(d) VerySlowConv
|  2> ! KDIIS NOSOSCF
|  3> %base "Scan_29"
|  4>
|  5> %scf
|  6> maxiter 999
|  7> end
|  8>
|  9> * xyz 0 1
| 10> C          1.459476458482   -2.844786614736   -0.000001714343
| 11> H          4.812382780043   -3.101504046518    0.000000577293
| 12> C          0.882825031381   -1.642427569329   -0.000008229094
| 13> H          2.781606818973    1.132912451831    0.000002859540
| 14> C         -0.446771735201   -1.540641903929   -0.000006519914
| 15> H         -1.900920697079    1.491409414501    0.000002195497
| 16> C         -1.199716107863   -2.641213997108    0.000001703025
| 17> H         -4.552626852618   -2.384555008216   -0.000000518013
| 18> C         -0.623070367825   -3.843573280338    0.000008217800
| 19> H         -2.521794480852   -6.618952771051   -0.000002765618
| 20> C          0.706530031924   -3.945365031455    0.000006508339
| 21> H          2.160689120634   -6.977411643651   -0.000002314512
| 22> **                         ****END OF INPUT****

CARTESIAN COORDINATES (ANGSTROEM)
---------------------------------
  C      1.459476   -2.844787   -0.000002
  H      4.812383   -3.101504    0.000001
  C      0.882825   -1.642428   -0.000008
  H      2.781607    1.132912    0.000003
  C     -0.446772   -1.540642   -0.000007
  H     -1.900921    1.491409    0.000002
  C     -1.199716   -2.641214    0.000002
  H     -4.552627   -2.384555   -0.000001
  C     -0.623070   -3.843573    0.000008
  H     -2.521794   -6.618953   -0.000003
  C      0.706530   -3.945365    0.000007
  H      2.160689   -6.977412   -0.000002

 Total Charge           Charge          ....    0
 Multiplicity           Mult            ....    1
 Number of Electrons    NEL             ....   42
 Basis Dimension        Dim             ....   96

ORBITAL ENERGIES
----------------

  NO   OCC          E(Eh)            E(eV)
   0   2.0000     -10.381641      -282.4988
   1   2.0000     -10.381300      -282.4895
   2   2.0000     -10.381266      -282.4886
   3   2.0000     -10.380479      -282.4672
   4   2.0000     -10.380444      -282.4662
   5   2.0000     -10.380090      -282.4566
   6   2.0000      -1.044568       -28.4241
   7   2.0000      -0.898684       -24.4544
   8   2.0000      -0.898615       -24.4525
   9   2.0000      -0.712976       -19.4011
  10   2.0000      -0.712774       -19.3956
  11   2.0000      -0.612366       -16.6633
  12   2.0000      -0.538664       -14.6578
  13   2.0000      -0.530532       -14.4365
  14   2.0000      -0.393199       -10.6995
  15   2.0000      -0.393018       -10.6946
  16   2.0000      -0.369034       -10.0419
  17   2.0000      -0.368740       -10.0339
  18   2.0000      -0.302112        -8.2209
  19   2.0000      -0.283651        -7.7185
  20   2.0000      -0.283599        -7.7171
  21   0.0000      -0.175334        -4.7711
  22   0.0000      -0.175231        -4.7683
  23   0.0000      -0.167860        -4.5677
  24   0.0000      -0.085579        -2.3287
  25   0.0000      -0.029331        -0.7981

MULLIKEN ATOMIC CHARGES
-----------------------
   0 C :    0.005474
   1 H :   -0.005282
   2 C :    0.005582
   3 H :   -0.005278
   4 C :    0.005230
   5 H :   -0.005738
   6 C :    0.005444
   7 H :   -0.005282
   8 C :    0.005596
   9 H :   -0.005279
  10 C :    0.005272
  11 H :   -0.005738
Sum of atomic charges:   -0.0000000

LOEWDIN ATOMIC CHARGES
----------------------
   0 C :    0.006340
   1 H :   -0.006116
   2 C :    0.006200
   3 H :   -0.006121
   4 C :    0.006271
   5 H :   -0.006585
   6 C :    0.006312
   7 H :   -0.006115
   8 C :    0.006212
   9 H :   -0.006121
  10 C :    0.006308
  11 H :   -0.006585

  Mayer bond orders larger than 0.1
B(  0-C ,  1-H ) :   0.1753 B(  0-C ,  2-C ) :   1.8088 B(  0-C ,  6-C ) :   0.1281
B(  0-C , 10-C ) :   1.8085 B(  1-H ,  3-H ) :   0.3550 B(  1-H , 11-H ) :   0.3525
B(  2-C ,  3-H ) :   0.1755 B(  2-C ,  4-C ) :   1.8081 B(  2-C ,  8-C ) :   0.1278
B(  3-H ,  5-H ) :   0.3537 B(  4-C ,  5-H ) :   0.1759 B(  4-C ,  6-C ) :   1.8085
B(  4-C , 10-C ) :   0.1277 B(  5-H ,  7-H ) :   0.3525 B(  6-C ,  7-H ) :   0.1753
B(  6-C ,  8-C ) :   1.8088 B(  7-H ,  9-H ) :   0.3550 B(  8-C ,  9-H ) :   0.1755
B(  8-C , 10-C ) :   1.8081 B(  9-H , 11-H ) :   0.3537 B( 10-C , 11-H ) :   0.1759

Dispersion correction           -0.002205380
FINAL SINGLE POINT ENERGY      -230.676280402664

DIPOLE MOMENT
-------------
                                X             Y             Z
Electronic contribution:      0.00004      -0.00004      -0.00000
Nuclear contribution   :      0.00005      -0.00008       0.00000
                        -----------------------------------------
Total Dipole Moment    :      0.00010      -0.00012       0.00000
                        -----------------------------------------
Magnitude (a.u.)       :      0.00016
Magnitude (Debye)      :      0.00040

                             ****ORCA TERMINATED NORMALLY****
TOTAL RUN TIME: 0 days 0 hours 2 minutes 39 seconds 945 msec
