                         Program Version 4.0.0.2 - RELEASE -
|  1> ! WB97X-D3 6-31G(d) VerySlowConv
|  2> ! KDIIS NOSOSCF
|  3> %base "Scan_3"
|  4>
|  5> %scf
|  6> maxiter 999
|  7> end
|  8>
|  9> * xyz 0 1
| 10> C          1.520887157653   -2.849498818793    0.000000000000
| 11> H          2.428838434715   -2.919007926051    0.000000000000
| 12> C          0.917608384886   -1.591610021400   -0.000000000000
| 13> H          1.431780834858   -0.840055812686   -0.000000000000
| 14> C         -0.473394662680   -1.485120361115    0.000000000000
| 15> H         -0.867173463165   -0.664056849563    0.000000000000
| 16> C         -1.261118938349   -2.636519520133    0.000000000000
| 17> H         -2.169070207521   -2.567010350850    0.000000000000
| 18> C         -0.657840149742   -3.894408333454   -0.000000000000
| 19> H         -1.172012343144   -4.645962715233   -0.000000000000
| 20> C          0.733162902067   -4.000897972375    0.000000000000
| 21> H          1.126942050422   -4.821961318347    0.000000000000
| 22> **                         ****END OF INPUT****

CARTESIAN COORDINATES (ANGSTROEM)
---------------------------------
  C      1.520887   -2.849499    0.000000
  H      2.428838   -2.919008    0.000000
  C      0.917608   -1.591610   -0.000000
  H      1.431781   -0.840056   -0.000000
  C     -0.473395   -1.485120    0.000000
  H     -0.867173   -0.664057    0.000000
  C     -1.261119   -2.636520    0.000000
  H     -2.169070   -2.567010    0.000000
  C     -0.657840   -3.894408   -0.000000
  H     -1.172012   -4.645963   -0.000000
  C      0.733163   -4.000898    0.000000
  H      1.126942   -4.821961    0.000000

 Total Charge           Charge          ....    0
 Multiplicity           Mult            ....    1
 Number of Electrons    NEL             ....   42
 Basis Dimension        Dim             ....   96

ORBITAL ENERGIES
----------------

  NO   OCC          E(Eh)            E(eV)
   0   2.0000     -10.259429      -279.1732
   1   2.0000     -10.259277      -279.1691
   2   2.0000     -10.259166      -279.1661
   3   2.0000     -10.258780      -279.1556
   4   2.0000     -10.258683      -279.1529
   5   2.0000     -10.258525      -279.1486
   6   2.0000      -0.967590       -26.3295
   7   2.0000      -0.870338       -23.6831
   8   2.0000      -0.870277       -23.6814
   9   2.0000      -0.734183       -19.9781
  10   2.0000      -0.734101       -19.9759
  11   2.0000      -0.656268       -17.8580
  12   2.0000      -0.614193       -16.7131
  13   2.0000      -0.533822       -14.5260
  14   2.0000      -0.533612       -14.5203
  15   2.0000      -0.532594       -14.4926
  16   2.0000      -0.458559       -12.4780
  17   2.0000      -0.444251       -12.0887
  18   2.0000      -0.443956       -12.0807
  19   2.0000      -0.327171        -8.9028
  20   2.0000      -0.327061        -8.8998
  21   0.0000       0.084312         2.2942
  22   0.0000       0.084527         2.3001
  23   0.0000       0.241469         6.5707
  24   0.0000       0.262699         7.1484
  25   0.0000       0.283591         7.7169

MULLIKEN ATOMIC CHARGES
-----------------------
   0 C :   -0.142081
   1 H :    0.141223
   2 C :   -0.137362
   3 H :    0.139120
   4 C :   -0.138883
   5 H :    0.137984
   6 C :   -0.142081
   7 H :    0.141223
   8 C :   -0.137362
   9 H :    0.139120
  10 C :   -0.138883
  11 H :    0.137984
Sum of atomic charges:    0.0000000

LOEWDIN ATOMIC CHARGES
----------------------
   0 C :   -0.138017
   1 H :    0.137896
   2 C :   -0.137128
   3 H :    0.137376
   4 C :   -0.137248
   5 H :    0.137120
   6 C :   -0.138017
   7 H :    0.137896
   8 C :   -0.137128
   9 H :    0.137376
  10 C :   -0.137248
  11 H :    0.137120

  Mayer bond orders larger than 0.1
B(  0-C ,  1-H ) :   0.9416 B(  0-C ,  2-C ) :   1.4684 B(  0-C , 10-C ) :   1.4697
B(  2-C ,  3-H ) :   0.9419 B(  2-C ,  4-C ) :   1.4705 B(  4-C ,  5-H ) :   0.9422
B(  4-C ,  6-C ) :   1.4697 B(  6-C ,  7-H ) :   0.9416 B(  6-C ,  8-C ) :   1.4684
B(  8-C ,  9-H ) :   0.9419 B(  8-C , 10-C ) :   1.4705 B( 10-C , 11-H ) :   0.9422

Dispersion correction           -0.002192684
FINAL SINGLE POINT ENERGY      -231.998312648122

DIPOLE MOMENT
-------------
                                X             Y             Z
Electronic contribution:     -0.00000      -0.00000      -0.00000
Nuclear contribution   :      0.00000       0.00000       0.00000
                        -----------------------------------------
Total Dipole Moment    :      0.00000       0.00000      -0.00000
                        -----------------------------------------
Magnitude (a.u.)       :      0.00000
Magnitude (Debye)      :      0.00000

                             ****ORCA TERMINATED NORMALLY****
TOTAL RUN TIME: 0 days 0 hours 0 minutes 59 seconds 904 msec
