                         Program Version 4.0.0.2 - RELEASE -
|  1> ! WB97X-D3 6-31G(d) VerySlowConv
|  2> ! KDIIS NOSOSCF
|  3> %base "Scan_30"
|  4>
|  5> %scf
|  6> maxiter 999
|  7> end
|  8>
|  9> * xyz 0 1
| 10> C          1.459463564031   -2.844776257367   -0.000002033876
| 11> H          4.914601874160   -3.109338405729    0.000000679782
| 12> C          0.882806153724   -1.642427750294   -0.000010238748
| 13> H          2.839507096776    1.217518735416    0.000003493838
| 14> C         -0.446772106419   -1.540649608835   -0.000008161494
| 15> H         -1.945253233486    1.583854342135    0.000002709712
| 16> C         -1.199701260937   -2.641205230983    0.000002021552
| 17> H         -4.654847067770   -2.376739354902   -0.000000619992
| 18> C         -0.623073547988   -3.843558280660    0.000010226037
| 19> H         -2.579673521147   -6.703573788143   -0.000003395670
| 20> C          0.706523936258   -3.945360846675    0.000008148988
| 21> H          2.205028112797   -7.069853553963   -0.000002830130
| 22> **                         ****END OF INPUT****

CARTESIAN COORDINATES (ANGSTROEM)
---------------------------------
  C      1.459464   -2.844776   -0.000002
  H      4.914602   -3.109338    0.000001
  C      0.882806   -1.642428   -0.000010
  H      2.839507    1.217519    0.000003
  C     -0.446772   -1.540650   -0.000008
  H     -1.945253    1.583854    0.000003
  C     -1.199701   -2.641205    0.000002
  H     -4.654847   -2.376739   -0.000001
  C     -0.623074   -3.843558    0.000010
  H     -2.579674   -6.703574   -0.000003
  C      0.706524   -3.945361    0.000008
  H      2.205028   -7.069854   -0.000003

 Total Charge           Charge          ....    0
 Multiplicity           Mult            ....    1
 Number of Electrons    NEL             ....   42
 Basis Dimension        Dim             ....   96

ORBITAL ENERGIES
----------------

  NO   OCC          E(Eh)            E(eV)
   0   2.0000     -10.378683      -282.4183
   1   2.0000     -10.378347      -282.4092
   2   2.0000     -10.378298      -282.4079
   3   2.0000     -10.377524      -282.3868
   4   2.0000     -10.377475      -282.3854
   5   2.0000     -10.377125      -282.3759
   6   2.0000      -1.041302       -28.3353
   7   2.0000      -0.896014       -24.3818
   8   2.0000      -0.895967       -24.3805
   9   2.0000      -0.710542       -19.3348
  10   2.0000      -0.710353       -19.3297
  11   2.0000      -0.609928       -16.5970
  12   2.0000      -0.536412       -14.5965
  13   2.0000      -0.529582       -14.4107
  14   2.0000      -0.391130       -10.6432
  15   2.0000      -0.390918       -10.6374
  16   2.0000      -0.367254        -9.9935
  17   2.0000      -0.366958        -9.9854
  18   2.0000      -0.298850        -8.1321
  19   2.0000      -0.280842        -7.6421
  20   2.0000      -0.280819        -7.6415
  21   0.0000      -0.178660        -4.8616
  22   0.0000      -0.178591        -4.8597
  23   0.0000      -0.168544        -4.5863
  24   0.0000      -0.084802        -2.3076
  25   0.0000      -0.028605        -0.7784

MULLIKEN ATOMIC CHARGES
-----------------------
   0 C :    0.005215
   1 H :   -0.005187
   2 C :    0.005598
   3 H :   -0.005204
   4 C :    0.004964
   5 H :   -0.005455
   6 C :    0.005232
   7 H :   -0.005194
   8 C :    0.005685
   9 H :   -0.005194
  10 C :    0.005002
  11 H :   -0.005461
Sum of atomic charges:   -0.0000000

LOEWDIN ATOMIC CHARGES
----------------------
   0 C :    0.006078
   1 H :   -0.005993
   2 C :    0.006129
   3 H :   -0.006014
   4 C :    0.006004
   5 H :   -0.006269
   6 C :    0.006090
   7 H :   -0.006001
   8 C :    0.006206
   9 H :   -0.006004
  10 C :    0.006047
  11 H :   -0.006274

  Mayer bond orders larger than 0.1
B(  0-C ,  1-H ) :   0.1300 B(  0-C ,  2-C ) :   1.8295 B(  0-C ,  6-C ) :   0.1336
B(  0-C , 10-C ) :   1.8295 B(  1-H ,  3-H ) :   0.3775 B(  1-H , 11-H ) :   0.3770
B(  2-C ,  3-H ) :   0.1303 B(  2-C ,  4-C ) :   1.8290 B(  2-C ,  8-C ) :   0.1333
B(  3-H ,  5-H ) :   0.3771 B(  4-C ,  5-H ) :   0.1303 B(  4-C ,  6-C ) :   1.8295
B(  4-C , 10-C ) :   0.1332 B(  5-H ,  7-H ) :   0.3769 B(  6-C ,  7-H ) :   0.1300
B(  6-C ,  8-C ) :   1.8295 B(  7-H ,  9-H ) :   0.3777 B(  8-C ,  9-H ) :   0.1303
B(  8-C , 10-C ) :   1.8289 B(  9-H , 11-H ) :   0.3770 B( 10-C , 11-H ) :   0.1304

Dispersion correction           -0.002015296
FINAL SINGLE POINT ENERGY      -230.663474430730

DIPOLE MOMENT
-------------
                                X             Y             Z
Electronic contribution:     -0.00023      -0.00017      -0.00000
Nuclear contribution   :      0.00010      -0.00013       0.00000
                        -----------------------------------------
Total Dipole Moment    :     -0.00013      -0.00030       0.00000
                        -----------------------------------------
Magnitude (a.u.)       :      0.00033
Magnitude (Debye)      :      0.00084

                             ****ORCA TERMINATED NORMALLY****
TOTAL RUN TIME: 0 days 0 hours 1 minutes 34 seconds 729 msec
