                         Program Version 4.0.0.2 - RELEASE -
|  1> ! WB97X-D3 6-31G(d) VerySlowConv
|  2> ! KDIIS NOSOSCF
|  3> %base "Scan_31"
|  4>
|  5> %scf
|  6> maxiter 999
|  7> end
|  8>
|  9> * xyz 0 1
| 10> C          1.459456932067   -2.844777418998   -0.000001722336
| 11> H          5.016741335061   -3.117161498987    0.000000611195
| 12> C          0.882806799215   -1.642428652739   -0.000012214936
| 13> H          2.897358315218    1.302065500937    0.000004112449
| 14> C         -0.446773746715   -1.540644334595   -0.000010477836
| 15> H         -1.989555502338    1.676230712072    0.000003414285
| 16> C         -1.199701339439   -2.641207129846    0.000001710729
| 17> H         -4.756993617613   -2.368924507796   -0.000000549903
| 18> C         -0.623068095920   -3.843558868735    0.000012204156
| 19> H         -2.637514172424   -6.788125119033   -0.000004016457
| 20> C          0.706524012252   -3.945357505325    0.000010466710
| 21> H          2.249329080639   -7.162221176955   -0.000003538056
| 22> **                         ****END OF INPUT****

CARTESIAN COORDINATES (ANGSTROEM)
---------------------------------
  C      1.459457   -2.844777   -0.000002
  H      5.016741   -3.117161    0.000001
  C      0.882807   -1.642429   -0.000012
  H      2.897358    1.302066    0.000004
  C     -0.446774   -1.540644   -0.000010
  H     -1.989556    1.676231    0.000003
  C     -1.199701   -2.641207    0.000002
  H     -4.756994   -2.368925   -0.000001
  C     -0.623068   -3.843559    0.000012
  H     -2.637514   -6.788125   -0.000004
  C      0.706524   -3.945358    0.000010
  H      2.249329   -7.162221   -0.000004

 Total Charge           Charge          ....    0
 Multiplicity           Mult            ....    1
 Number of Electrons    NEL             ....   42
 Basis Dimension        Dim             ....   96

ORBITAL ENERGIES
----------------

  NO   OCC          E(Eh)            E(eV)
   0   2.0000     -10.375656      -282.3360
   1   2.0000     -10.375321      -282.3268
   2   2.0000     -10.375278      -282.3257
   3   2.0000     -10.374495      -282.3044
   4   2.0000     -10.374453      -282.3032
   5   2.0000     -10.374102      -282.2937
   6   2.0000      -1.038131       -28.2490
   7   2.0000      -0.893344       -24.3091
   8   2.0000      -0.893274       -24.3072
   9   2.0000      -0.708056       -19.2672
  10   2.0000      -0.707849       -19.2616
  11   2.0000      -0.607402       -16.5283
  12   2.0000      -0.534084       -14.5332
  13   2.0000      -0.528330       -14.3766
  14   2.0000      -0.388920       -10.5830
  15   2.0000      -0.388738       -10.5781
  16   2.0000      -0.365475        -9.9451
  17   2.0000      -0.365172        -9.9368
  18   2.0000      -0.296100        -8.0573
  19   2.0000      -0.278471        -7.5776
  20   2.0000      -0.278451        -7.5770
  21   0.0000      -0.181301        -4.9335
  22   0.0000      -0.181264        -4.9324
  23   0.0000      -0.169231        -4.6050
  24   0.0000      -0.083608        -2.2751
  25   0.0000      -0.027454        -0.7471

MULLIKEN ATOMIC CHARGES
-----------------------
   0 C :    0.004539
   1 H :   -0.004632
   2 C :    0.005004
   3 H :   -0.004640
   4 C :    0.004500
   5 H :   -0.004777
   6 C :    0.004542
   7 H :   -0.004632
   8 C :    0.005009
   9 H :   -0.004639
  10 C :    0.004502
  11 H :   -0.004775
Sum of atomic charges:   -0.0000000

LOEWDIN ATOMIC CHARGES
----------------------
   0 C :    0.005350
   1 H :   -0.005365
   2 C :    0.005382
   3 H :   -0.005374
   4 C :    0.005515
   5 H :   -0.005514
   6 C :    0.005350
   7 H :   -0.005365
   8 C :    0.005387
   9 H :   -0.005373
  10 C :    0.005520
  11 H :   -0.005512

  Mayer bond orders larger than 0.1
B(  0-C ,  2-C ) :   1.8456 B(  0-C ,  6-C ) :   0.1382 B(  0-C , 10-C ) :   1.8458
B(  1-H ,  3-H ) :   0.3961 B(  1-H , 11-H ) :   0.3960 B(  2-C ,  4-C ) :   1.8452
B(  2-C ,  8-C ) :   0.1380 B(  3-H ,  5-H ) :   0.3956 B(  4-C ,  6-C ) :   1.8458
B(  4-C , 10-C ) :   0.1379 B(  5-H ,  7-H ) :   0.3960 B(  6-C ,  8-C ) :   1.8456
B(  7-H ,  9-H ) :   0.3961 B(  8-C , 10-C ) :   1.8452 B(  9-H , 11-H ) :   0.3956

Dispersion correction           -0.001835515
FINAL SINGLE POINT ENERGY      -230.653153542067

DIPOLE MOMENT
-------------
                                X             Y             Z
Electronic contribution:     -0.00011       0.00011      -0.00000
Nuclear contribution   :      0.00010      -0.00014       0.00000
                        -----------------------------------------
Total Dipole Moment    :     -0.00000      -0.00003      -0.00000
                        -----------------------------------------
Magnitude (a.u.)       :      0.00003
Magnitude (Debye)      :      0.00007

                             ****ORCA TERMINATED NORMALLY****
TOTAL RUN TIME: 0 days 0 hours 1 minutes 8 seconds 36 msec
