                         Program Version 4.0.0.2 - RELEASE -
|  1> ! WB97X-D3 6-31G(d) VerySlowConv
|  2> ! KDIIS NOSOSCF
|  3> %base "Scan_32"
|  4>
|  5> %scf
|  6> maxiter 999
|  7> end
|  8>
|  9> * xyz 0 1
| 10> C          1.459458299210   -2.844778790352   -0.000002076682
| 11> H          5.118829504566   -3.124979941949    0.000000716076
| 12> C          0.882813610146   -1.642433495895   -0.000015189362
| 13> H          2.955171066901    1.386567252888    0.000005012255
| 14> C         -0.446771430229   -1.540649923665   -0.000013019550
| 15> H         -2.033827474933    1.768544146831    0.000004173937
| 16> C         -1.199709302959   -2.641213690029    0.000002064852
| 17> H         -4.859087950251   -2.361109385419   -0.000000654649
| 18> C         -0.623063533680   -3.843559056999    0.000015176843
| 19> H         -2.695322212821   -6.872627438909   -0.000004911891
| 20> C          0.706521505749   -3.945342685928    0.000013007224
| 21> H          2.293597918301   -7.254526990575   -0.000004299053
| 22> **                         ****END OF INPUT****

CARTESIAN COORDINATES (ANGSTROEM)
---------------------------------
  C      1.459458   -2.844779   -0.000002
  H      5.118830   -3.124980    0.000001
  C      0.882814   -1.642433   -0.000015
  H      2.955171    1.386567    0.000005
  C     -0.446771   -1.540650   -0.000013
  H     -2.033827    1.768544    0.000004
  C     -1.199709   -2.641214    0.000002
  H     -4.859088   -2.361109   -0.000001
  C     -0.623064   -3.843559    0.000015
  H     -2.695322   -6.872627   -0.000005
  C      0.706522   -3.945343    0.000013
  H      2.293598   -7.254527   -0.000004

 Total Charge           Charge          ....    0
 Multiplicity           Mult            ....    1
 Number of Electrons    NEL             ....   42
 Basis Dimension        Dim             ....   96

ORBITAL ENERGIES
----------------

  NO   OCC          E(Eh)            E(eV)
   0   2.0000     -10.372804      -282.2583
   1   2.0000     -10.372479      -282.2495
   2   2.0000     -10.372416      -282.2478
   3   2.0000     -10.371652      -282.2270
   4   2.0000     -10.371587      -282.2252
   5   2.0000     -10.371246      -282.2160
   6   2.0000      -1.035252       -28.1706
   7   2.0000      -0.890842       -24.2410
   8   2.0000      -0.890775       -24.2392
   9   2.0000      -0.705691       -19.2028
  10   2.0000      -0.705504       -19.1977
  11   2.0000      -0.605009       -16.4631
  12   2.0000      -0.531881       -14.4732
  13   2.0000      -0.526970       -14.3396
  14   2.0000      -0.386823       -10.5260
  15   2.0000      -0.386631       -10.5208
  16   2.0000      -0.363793        -9.8993
  17   2.0000      -0.363465        -9.8904
  18   2.0000      -0.293803        -7.9948
  19   2.0000      -0.276502        -7.5240
  20   2.0000      -0.276481        -7.5234
  21   0.0000      -0.183436        -4.9916
  22   0.0000      -0.183405        -4.9907
  23   0.0000      -0.169984        -4.6255
  24   0.0000      -0.082246        -2.2380
  25   0.0000      -0.026149        -0.7115

MULLIKEN ATOMIC CHARGES
-----------------------
   0 C :    0.003725
   1 H :   -0.003782
   2 C :    0.004255
   3 H :   -0.003928
   4 C :    0.003631
   5 H :   -0.003912
   6 C :    0.003734
   7 H :   -0.003784
   8 C :    0.004268
   9 H :   -0.003928
  10 C :    0.003632
  11 H :   -0.003910
Sum of atomic charges:   -0.0000000

LOEWDIN ATOMIC CHARGES
----------------------
   0 C :    0.004429
   1 H :   -0.004417
   2 C :    0.004537
   3 H :   -0.004561
   4 C :    0.004548
   5 H :   -0.004547
   6 C :    0.004438
   7 H :   -0.004419
   8 C :    0.004548
   9 H :   -0.004561
  10 C :    0.004548
  11 H :   -0.004544

  Mayer bond orders larger than 0.1
B(  0-C ,  2-C ) :   1.8577 B(  0-C ,  6-C ) :   0.1419 B(  0-C , 10-C ) :   1.8579
B(  1-H ,  3-H ) :   0.4106 B(  1-H , 11-H ) :   0.4097 B(  2-C ,  4-C ) :   1.8573
B(  2-C ,  8-C ) :   0.1418 B(  3-H ,  5-H ) :   0.4093 B(  4-C ,  6-C ) :   1.8580
B(  4-C , 10-C ) :   0.1416 B(  5-H ,  7-H ) :   0.4109 B(  6-C ,  8-C ) :   1.8576
B(  7-H ,  9-H ) :   0.4094 B(  8-C , 10-C ) :   1.8573 B(  9-H , 11-H ) :   0.4106

Dispersion correction           -0.001664928
FINAL SINGLE POINT ENERGY      -230.644842267710

DIPOLE MOMENT
-------------
                                X             Y             Z
Electronic contribution:     -0.00011       0.00009      -0.00000
Nuclear contribution   :      0.00010      -0.00013       0.00000
                        -----------------------------------------
Total Dipole Moment    :     -0.00002      -0.00004      -0.00000
                        -----------------------------------------
Magnitude (a.u.)       :      0.00004
Magnitude (Debye)      :      0.00011

                             ****ORCA TERMINATED NORMALLY****
TOTAL RUN TIME: 0 days 0 hours 1 minutes 43 seconds 869 msec
