                         Program Version 4.0.0.2 - RELEASE -
|  1> ! WB97X-D3 6-31G(d) VerySlowConv
|  2> ! KDIIS NOSOSCF
|  3> %base "Scan_33"
|  4>
|  5> %scf
|  6> maxiter 999
|  7> end
|  8>
|  9> * xyz 0 1
| 10> C          1.459460401043   -2.844779275420   -0.000001377179
| 11> H          5.220881216676   -3.132793068033    0.000000548312
| 12> C          0.882816550064   -1.642435546558   -0.000018062621
| 13> H          3.012960464404    1.471039348615    0.000005877394
| 14> C         -0.446769379214   -1.540652250084   -0.000016634980
| 15> H         -2.078085959529    1.860824708249    0.000005226396
| 16> C         -1.199713074956   -2.641216883197    0.000001363614
| 17> H         -4.961141331584   -2.353296090892   -0.000000484305
| 18> C         -0.623059447898   -3.843561699450    0.000018049029
| 19> H         -2.753114096360   -6.957097663229   -0.000005773779
| 20> C          0.706522381109   -3.945335693291    0.000016622132
| 21> H          2.337852276244   -7.346805886711   -0.000005354012
| 22> **                         ****END OF INPUT****

CARTESIAN COORDINATES (ANGSTROEM)
---------------------------------
  C      1.459460   -2.844779   -0.000001
  H      5.220881   -3.132793    0.000001
  C      0.882817   -1.642436   -0.000018
  H      3.012960    1.471039    0.000006
  C     -0.446769   -1.540652   -0.000017
  H     -2.078086    1.860825    0.000005
  C     -1.199713   -2.641217    0.000001
  H     -4.961141   -2.353296   -0.000000
  C     -0.623059   -3.843562    0.000018
  H     -2.753114   -6.957098   -0.000006
  C      0.706522   -3.945336    0.000017
  H      2.337852   -7.346806   -0.000005

 Total Charge           Charge          ....    0
 Multiplicity           Mult            ....    1
 Number of Electrons    NEL             ....   42
 Basis Dimension        Dim             ....   96

ORBITAL ENERGIES
----------------

  NO   OCC          E(Eh)            E(eV)
   0   2.0000     -10.370177      -282.1869
   1   2.0000     -10.369859      -282.1782
   2   2.0000     -10.369779      -282.1760
   3   2.0000     -10.369034      -282.1557
   4   2.0000     -10.368946      -282.1534
   5   2.0000     -10.368615      -282.1443
   6   2.0000      -1.032676       -28.1005
   7   2.0000      -0.888549       -24.1786
   8   2.0000      -0.888492       -24.1771
   9   2.0000      -0.703513       -19.1436
  10   2.0000      -0.703329       -19.1386
  11   2.0000      -0.602792       -16.4028
  12   2.0000      -0.529843       -14.4178
  13   2.0000      -0.525572       -14.3016
  14   2.0000      -0.384871       -10.4729
  15   2.0000      -0.384661       -10.4671
  16   2.0000      -0.362194        -9.8558
  17   2.0000      -0.361877        -9.8472
  18   2.0000      -0.291894        -7.9428
  19   2.0000      -0.274885        -7.4800
  20   2.0000      -0.274869        -7.4796
  21   0.0000      -0.185206        -5.0397
  22   0.0000      -0.185182        -5.0391
  23   0.0000      -0.170823        -4.6483
  24   0.0000      -0.080792        -2.1985
  25   0.0000      -0.024702        -0.6722

MULLIKEN ATOMIC CHARGES
-----------------------
   0 C :    0.002790
   1 H :   -0.002911
   2 C :    0.003361
   3 H :   -0.003097
   4 C :    0.002672
   5 H :   -0.002863
   6 C :    0.002831
   7 H :   -0.002906
   8 C :    0.003409
   9 H :   -0.003094
  10 C :    0.002670
  11 H :   -0.002863
Sum of atomic charges:   -0.0000000

LOEWDIN ATOMIC CHARGES
----------------------
   0 C :    0.003365
   1 H :   -0.003441
   2 C :    0.003604
   3 H :   -0.003625
   4 C :    0.003445
   5 H :   -0.003391
   6 C :    0.003404
   7 H :   -0.003435
   8 C :    0.003646
   9 H :   -0.003622
  10 C :    0.003442
  11 H :   -0.003391

  Mayer bond orders larger than 0.1
B(  0-C ,  2-C ) :   1.8665 B(  0-C ,  6-C ) :   0.1448 B(  0-C , 10-C ) :   1.8668
B(  1-H ,  3-H ) :   0.4200 B(  1-H ,  7-H ) :   0.1003 B(  1-H , 11-H ) :   0.4215
B(  2-C ,  4-C ) :   1.8663 B(  2-C ,  8-C ) :   0.1447 B(  3-H ,  5-H ) :   0.4212
B(  3-H ,  9-H ) :   0.1004 B(  4-C ,  6-C ) :   1.8667 B(  4-C , 10-C ) :   0.1445
B(  5-H ,  7-H ) :   0.4201 B(  5-H , 11-H ) :   0.1003 B(  6-C ,  8-C ) :   1.8665
B(  7-H ,  9-H ) :   0.4213 B(  8-C , 10-C ) :   1.8662 B(  9-H , 11-H ) :   0.4199

Dispersion correction           -0.001503176
FINAL SINGLE POINT ENERGY      -230.638067232581

DIPOLE MOMENT
-------------
                                X             Y             Z
Electronic contribution:     -0.00032       0.00002      -0.00000
Nuclear contribution   :      0.00008      -0.00013       0.00000
                        -----------------------------------------
Total Dipole Moment    :     -0.00024      -0.00011       0.00000
                        -----------------------------------------
Magnitude (a.u.)       :      0.00026
Magnitude (Debye)      :      0.00067

                             ****ORCA TERMINATED NORMALLY****
TOTAL RUN TIME: 0 days 0 hours 2 minutes 8 seconds 649 msec
