                         Program Version 4.0.0.2 - RELEASE -
|  1> ! WB97X-D3 6-31G(d) VerySlowConv
|  2> ! KDIIS NOSOSCF
|  3> %base "Scan_34"
|  4>
|  5> %scf
|  6> maxiter 999
|  7> end
|  8>
|  9> * xyz 0 1
| 10> C          1.459469169994   -2.844776153111   -0.000001715837
| 11> H          5.322914892466   -3.140606708703    0.000000641318
| 12> C          0.882816596901   -1.642424467713   -0.000022326043
| 13> H          3.070745438239    1.555496454329    0.000007115630
| 14> C         -0.446776636280   -1.540645422409   -0.000020435680
| 15> H         -2.122337342330    1.953095841495    0.000006317834
| 16> C         -1.199720054021   -2.641215414976    0.000001701157
| 17> H         -5.063174098632   -2.345486446463   -0.000000576325
| 18> C         -0.623066494682   -3.843566978962    0.000022311084
| 19> H         -2.810893851458   -7.041557281888   -0.000007007801
| 20> C          0.706526394006   -3.945345776877    0.000020421927
| 21> H          2.382105985797   -7.439077644720   -0.000006447263
| 22> **                         ****END OF INPUT****

CARTESIAN COORDINATES (ANGSTROEM)
---------------------------------
  C      1.459469   -2.844776   -0.000002
  H      5.322915   -3.140607    0.000001
  C      0.882817   -1.642424   -0.000022
  H      3.070745    1.555496    0.000007
  C     -0.446777   -1.540645   -0.000020
  H     -2.122337    1.953096    0.000006
  C     -1.199720   -2.641215    0.000002
  H     -5.063174   -2.345486   -0.000001
  C     -0.623066   -3.843567    0.000022
  H     -2.810894   -7.041557   -0.000007
  C      0.706526   -3.945346    0.000020
  H      2.382106   -7.439078   -0.000006

 Total Charge           Charge          ....    0
 Multiplicity           Mult            ....    1
 Number of Electrons    NEL             ....   42
 Basis Dimension        Dim             ....   96

ORBITAL ENERGIES
----------------

  NO   OCC          E(Eh)            E(eV)
   0   2.0000     -10.368066      -282.1294
   1   2.0000     -10.367758      -282.1210
   2   2.0000     -10.367655      -282.1182
   3   2.0000     -10.366931      -282.0985
   4   2.0000     -10.366821      -282.0955
   5   2.0000     -10.366497      -282.0867
   6   2.0000      -1.030618       -28.0445
   7   2.0000      -0.886699       -24.1283
   8   2.0000      -0.886639       -24.1267
   9   2.0000      -0.701737       -19.0952
  10   2.0000      -0.701558       -19.0904
  11   2.0000      -0.600981       -16.3535
  12   2.0000      -0.528175       -14.3724
  13   2.0000      -0.524380       -14.2691
  14   2.0000      -0.383258       -10.4290
  15   2.0000      -0.383048       -10.4233
  16   2.0000      -0.360895        -9.8205
  17   2.0000      -0.360580        -9.8119
  18   2.0000      -0.290226        -7.8974
  19   2.0000      -0.273488        -7.4420
  20   2.0000      -0.273483        -7.4418
  21   0.0000      -0.186620        -5.0782
  22   0.0000      -0.186609        -5.0779
  23   0.0000      -0.171673        -4.6715
  24   0.0000      -0.079592        -2.1658
  25   0.0000      -0.023507        -0.6397

MULLIKEN ATOMIC CHARGES
-----------------------
   0 C :    0.002110
   1 H :   -0.002113
   2 C :    0.002473
   3 H :   -0.002203
   4 C :    0.001669
   5 H :   -0.001945
   6 C :    0.002044
   7 H :   -0.002123
   8 C :    0.002476
   9 H :   -0.002198
  10 C :    0.001752
  11 H :   -0.001941
Sum of atomic charges:   -0.0000000

LOEWDIN ATOMIC CHARGES
----------------------
   0 C :    0.002502
   1 H :   -0.002546
   2 C :    0.002636
   3 H :   -0.002634
   4 C :    0.002411
   5 H :   -0.002375
   6 C :    0.002443
   7 H :   -0.002557
   8 C :    0.002638
   9 H :   -0.002630
  10 C :    0.002483
  11 H :   -0.002372

  Mayer bond orders larger than 0.1
B(  0-C ,  2-C ) :   1.8725 B(  0-C ,  6-C ) :   0.1469 B(  0-C , 10-C ) :   1.8727
B(  1-H ,  3-H ) :   0.4274 B(  1-H ,  7-H ) :   0.1036 B(  1-H , 11-H ) :   0.4288
B(  2-C ,  4-C ) :   1.8724 B(  2-C ,  8-C ) :   0.1468 B(  3-H ,  5-H ) :   0.4286
B(  3-H ,  9-H ) :   0.1038 B(  4-C ,  6-C ) :   1.8727 B(  4-C , 10-C ) :   0.1467
B(  5-H ,  7-H ) :   0.4278 B(  5-H , 11-H ) :   0.1034 B(  6-C ,  8-C ) :   1.8725
B(  7-H ,  9-H ) :   0.4284 B(  8-C , 10-C ) :   1.8724 B(  9-H , 11-H ) :   0.4276

Dispersion correction           -0.001351258
FINAL SINGLE POINT ENERGY      -230.632448266501

DIPOLE MOMENT
-------------
                                X             Y             Z
Electronic contribution:      0.00024      -0.00013      -0.00000
Nuclear contribution   :      0.00010      -0.00014       0.00000
                        -----------------------------------------
Total Dipole Moment    :      0.00034      -0.00027       0.00000
                        -----------------------------------------
Magnitude (a.u.)       :      0.00043
Magnitude (Debye)      :      0.00110

                             ****ORCA TERMINATED NORMALLY****
TOTAL RUN TIME: 0 days 0 hours 1 minutes 51 seconds 642 msec
