                         Program Version 4.0.0.2 - RELEASE -
|  1> ! WB97X-D3 6-31G(d) VerySlowConv
|  2> ! KDIIS NOSOSCF
|  3> %base "Scan_35"
|  4>
|  5> %scf
|  6> maxiter 999
|  7> end
|  8>
|  9> * xyz 0 1
| 10> C          1.459486268343   -2.844771899282   -0.000002721235
| 11> H          5.424941284725   -3.148422050828    0.000000883948
| 12> C          0.882818158090   -1.642415174927   -0.000027790045
| 13> H          3.128521557886    1.639940321324    0.000008681771
| 14> C         -0.446784223654   -1.540638335924   -0.000024747835
| 15> H         -2.166581339891    2.045353680816    0.000007520313
| 16> C         -1.199731259557   -2.641215045608    0.000002710742
| 17> H         -5.165195259131   -2.337677872986   -0.000000820502
| 18> C         -0.623077626203   -3.843576544859    0.000027772046
| 19> H         -2.868665656784   -7.126010450319   -0.000008569192
| 20> C          0.706528579499   -3.945347794968    0.000024729418
| 21> H          2.426349516678   -7.531328832439   -0.000007649429
| 22> **                         ****END OF INPUT****

CARTESIAN COORDINATES (ANGSTROEM)
---------------------------------
  C      1.459486   -2.844772   -0.000003
  H      5.424941   -3.148422    0.000001
  C      0.882818   -1.642415   -0.000028
  H      3.128522    1.639940    0.000009
  C     -0.446784   -1.540638   -0.000025
  H     -2.166581    2.045354    0.000008
  C     -1.199731   -2.641215    0.000003
  H     -5.165195   -2.337678   -0.000001
  C     -0.623078   -3.843577    0.000028
  H     -2.868666   -7.126010   -0.000009
  C      0.706529   -3.945348    0.000025
  H      2.426350   -7.531329   -0.000008

 Total Charge           Charge          ....    0
 Multiplicity           Mult            ....    1
 Number of Electrons    NEL             ....   42
 Basis Dimension        Dim             ....   96

ORBITAL ENERGIES
----------------

  NO   OCC          E(Eh)            E(eV)
   0   2.0000     -10.366371      -282.0833
   1   2.0000     -10.366050      -282.0746
   2   2.0000     -10.365964      -282.0722
   3   2.0000     -10.365221      -282.0520
   4   2.0000     -10.365140      -282.0498
   5   2.0000     -10.364797      -282.0405
   6   2.0000      -1.028987       -28.0002
   7   2.0000      -0.885222       -24.0881
   8   2.0000      -0.885153       -24.0862
   9   2.0000      -0.700316       -19.0566
  10   2.0000      -0.700133       -19.0516
  11   2.0000      -0.599526       -16.3139
  12   2.0000      -0.526836       -14.3359
  13   2.0000      -0.523383       -14.2420
  14   2.0000      -0.381952       -10.3934
  15   2.0000      -0.381757       -10.3881
  16   2.0000      -0.359847        -9.7919
  17   2.0000      -0.359523        -9.7831
  18   2.0000      -0.288770        -7.8578
  19   2.0000      -0.272306        -7.4098
  20   2.0000      -0.272297        -7.4096
  21   0.0000      -0.187831        -5.1111
  22   0.0000      -0.187816        -5.1107
  23   0.0000      -0.172568        -4.6958
  24   0.0000      -0.078576        -2.1382
  25   0.0000      -0.022490        -0.6120

MULLIKEN ATOMIC CHARGES
-----------------------
   0 C :    0.001533
   1 H :   -0.001354
   2 C :    0.001671
   3 H :   -0.001536
   4 C :    0.000921
   5 H :   -0.001231
   6 C :    0.001354
   7 H :   -0.001364
   8 C :    0.001758
   9 H :   -0.001524
  10 C :    0.000992
  11 H :   -0.001219
Sum of atomic charges:   -0.0000000

LOEWDIN ATOMIC CHARGES
----------------------
   0 C :    0.001765
   1 H :   -0.001699
   2 C :    0.001762
   3 H :   -0.001881
   4 C :    0.001620
   5 H :   -0.001575
   6 C :    0.001623
   7 H :   -0.001709
   8 C :    0.001823
   9 H :   -0.001869
  10 C :    0.001703
  11 H :   -0.001564

  Mayer bond orders larger than 0.1
B(  0-C ,  2-C ) :   1.8766 B(  0-C ,  6-C ) :   0.1484 B(  0-C , 10-C ) :   1.8769
B(  1-H ,  3-H ) :   0.4330 B(  1-H ,  7-H ) :   0.1061 B(  1-H , 11-H ) :   0.4336
B(  2-C ,  4-C ) :   1.8767 B(  2-C ,  8-C ) :   0.1483 B(  3-H ,  5-H ) :   0.4334
B(  3-H ,  9-H ) :   0.1062 B(  4-C ,  6-C ) :   1.8769 B(  4-C , 10-C ) :   0.1482
B(  5-H ,  7-H ) :   0.4335 B(  5-H , 11-H ) :   0.1057 B(  6-C ,  8-C ) :   1.8767
B(  7-H ,  9-H ) :   0.4331 B(  8-C , 10-C ) :   1.8767 B(  9-H , 11-H ) :   0.4334

Dispersion correction           -0.001210759
FINAL SINGLE POINT ENERGY      -230.627699669134

DIPOLE MOMENT
-------------
                                X             Y             Z
Electronic contribution:      0.00035      -0.00043      -0.00000
Nuclear contribution   :      0.00011      -0.00016       0.00000
                        -----------------------------------------
Total Dipole Moment    :      0.00046      -0.00059       0.00000
                        -----------------------------------------
Magnitude (a.u.)       :      0.00075
Magnitude (Debye)      :      0.00190

                             ****ORCA TERMINATED NORMALLY****
TOTAL RUN TIME: 0 days 0 hours 1 minutes 34 seconds 119 msec
