                         Program Version 4.0.0.2 - RELEASE -
|  1> ! WB97X-D3 6-31G(d) VerySlowConv
|  2> ! KDIIS NOSOSCF
|  3> %base "Scan_36"
|  4>
|  5> %scf
|  6> maxiter 999
|  7> end
|  8>
|  9> * xyz 0 1
| 10> C          1.459489292297   -2.844771839968   -0.000001384226
| 11> H          5.526944366935   -3.156232596559    0.000000573403
| 12> C          0.882820861537   -1.642409158880   -0.000032783745
| 13> H          3.186289208921    1.724374595577    0.000010095796
| 14> C         -0.446789567705   -1.540629129048   -0.000031210052
| 15> H         -2.210822733939    2.137602293950    0.000009295166
| 16> C         -1.199737216429   -2.641217270597    0.000001367309
| 17> H         -5.267201056311   -2.329869377018   -0.000000505677
| 18> C         -0.623076075219   -3.843584222519    0.000032766878
| 19> H         -2.926431059473   -7.210445494458   -0.000009980708
| 20> C          0.706534508356   -3.945353440884    0.000031193161
| 21> H          2.470589471029   -7.623574359595   -0.000009427304
| 22> **                         ****END OF INPUT****

CARTESIAN COORDINATES (ANGSTROEM)
---------------------------------
  C      1.459489   -2.844772   -0.000001
  H      5.526944   -3.156233    0.000001
  C      0.882821   -1.642409   -0.000033
  H      3.186289    1.724375    0.000010
  C     -0.446790   -1.540629   -0.000031
  H     -2.210823    2.137602    0.000009
  C     -1.199737   -2.641217    0.000001
  H     -5.267201   -2.329869   -0.000001
  C     -0.623076   -3.843584    0.000033
  H     -2.926431   -7.210445   -0.000010
  C      0.706535   -3.945353    0.000031
  H      2.470589   -7.623574   -0.000009

 Total Charge           Charge          ....    0
 Multiplicity           Mult            ....    1
 Number of Electrons    NEL             ....   42
 Basis Dimension        Dim             ....   96

ORBITAL ENERGIES
----------------

  NO   OCC          E(Eh)            E(eV)
   0   2.0000     -10.326200      -280.9902
   1   2.0000     -10.326097      -280.9874
   2   2.0000     -10.322216      -280.8818
   3   2.0000     -10.322071      -280.8778
   4   2.0000     -10.321073      -280.8507
   5   2.0000     -10.320865      -280.8450
   6   2.0000      -1.023675       -27.8556
   7   2.0000      -0.867740       -23.6124
   8   2.0000      -0.866172       -23.5697
   9   2.0000      -0.676528       -18.4093
  10   2.0000      -0.675176       -18.3725
  11   2.0000      -0.568069       -15.4579
  12   2.0000      -0.502354       -13.6697
  13   2.0000      -0.469948       -12.7879
  14   2.0000      -0.354571        -9.6484
  15   2.0000      -0.352581        -9.5942
  16   2.0000      -0.285191        -7.7604
  17   2.0000      -0.281289        -7.6543
  18   2.0000      -0.264769        -7.2047
  19   2.0000      -0.264558        -7.1990
  20   2.0000      -0.226755        -6.1703
  21   0.0000      -0.214870        -5.8469
  22   0.0000      -0.195817        -5.3285
  23   0.0000      -0.188019        -5.1163
  24   0.0000      -0.183565        -4.9951
  25   0.0000      -0.001630        -0.0444

MULLIKEN ATOMIC CHARGES
-----------------------
   0 C :   -0.046739
   1 H :    0.046649
   2 C :   -0.046850
   3 H :    0.047889
   4 C :   -0.041785
   5 H :    0.040446
   6 C :   -0.046606
   7 H :    0.046515
   8 C :   -0.046582
   9 H :    0.048055
  10 C :   -0.041686
  11 H :    0.040694
Sum of atomic charges:   -0.0000000

LOEWDIN ATOMIC CHARGES
----------------------
   0 C :   -0.047727
   1 H :    0.046306
   2 C :   -0.050829
   3 H :    0.047554
   4 C :   -0.035720
   5 H :    0.040083
   6 C :   -0.047626
   7 H :    0.046173
   8 C :   -0.050622
   9 H :    0.047722
  10 C :   -0.035643
  11 H :    0.040329

  Mayer bond orders larger than 0.1
B(  0-C ,  1-H ) :   0.1209 B(  0-C ,  2-C ) :   1.5032 B(  0-C ,  4-C ) :   0.1763
B(  0-C ,  6-C ) :   0.1624 B(  0-C ,  8-C ) :   0.1592 B(  0-C , 10-C ) :   1.4836
B(  1-H ,  5-H ) :   0.2371 B(  1-H ,  7-H ) :   0.1647 B(  1-H ,  9-H ) :   0.2030
B(  2-C ,  3-H ) :   0.1132 B(  2-C ,  4-C ) :   1.4876 B(  2-C ,  6-C ) :   0.1593
B(  2-C ,  8-C ) :   0.1652 B(  2-C , 10-C ) :   0.1724 B(  3-H ,  7-H ) :   0.2030
B(  3-H ,  9-H ) :   0.1944 B(  3-H , 11-H ) :   0.2297 B(  4-C ,  5-H ) :   0.1386
B(  4-C ,  6-C ) :   1.4839 B(  4-C ,  8-C ) :   0.1728 B(  4-C , 10-C ) :   0.1500
B(  5-H ,  9-H ) :   0.2333 B(  6-C ,  7-H ) :   0.1187 B(  6-C ,  8-C ) :   1.5032
B(  6-C , 10-C ) :   0.1768 B(  7-H , 11-H ) :   0.2400 B(  8-C ,  9-H ) :   0.1124
B(  8-C , 10-C ) :   1.4874 B( 10-C , 11-H ) :   0.1399

Dispersion correction           -0.001082956
FINAL SINGLE POINT ENERGY      -230.350526039417

DIPOLE MOMENT
-------------
                                X             Y             Z
Electronic contribution:      0.00100      -0.00398      -0.00000
Nuclear contribution   :      0.00011      -0.00016       0.00000
                        -----------------------------------------
Total Dipole Moment    :      0.00111      -0.00414       0.00000
                        -----------------------------------------
Magnitude (a.u.)       :      0.00429
Magnitude (Debye)      :      0.01090

                             ****ORCA TERMINATED NORMALLY****
TOTAL RUN TIME: 0 days 0 hours 4 minutes 3 seconds 620 msec
