                         Program Version 4.0.0.2 - RELEASE -
|  1> ! WB97X-D3 6-31G(d) VerySlowConv
|  2> ! KDIIS NOSOSCF
|  3> %base "Scan_37"
|  4>
|  5> %scf
|  6> maxiter 999
|  7> end
|  8>
|  9> * xyz 0 1
| 10> C          1.459495209381   -2.844769739427   -0.000001991515
| 11> H          5.628943889441   -3.164043481870    0.000000723075
| 12> C          0.882822331382   -1.642402595569   -0.000040152361
| 13> H          3.244053897754    1.808803355889    0.000012113364
| 14> C         -0.446793806833   -1.540625538649   -0.000037764148
| 15> H         -2.255058642368    2.229840433888    0.000011075209
| 16> C         -1.199745125328   -2.641219291271    0.000001972943
| 17> H         -5.369202909031   -2.322061391452   -0.000000654158
| 18> C         -0.623076335246   -3.843590481064    0.000040133850
| 19> H         -2.984192254524   -7.294875600572   -0.000011993780
| 20> C          0.706538698306   -3.945355185034    0.000037746657
| 21> H          2.514825047065   -7.715810484868   -0.000011209135
| 22> **                         ****END OF INPUT****

CARTESIAN COORDINATES (ANGSTROEM)
---------------------------------
  C      1.459495   -2.844770   -0.000002
  H      5.628944   -3.164043    0.000001
  C      0.882822   -1.642403   -0.000040
  H      3.244054    1.808803    0.000012
  C     -0.446794   -1.540626   -0.000038
  H     -2.255059    2.229840    0.000011
  C     -1.199745   -2.641219    0.000002
  H     -5.369203   -2.322061   -0.000001
  C     -0.623076   -3.843590    0.000040
  H     -2.984192   -7.294876   -0.000012
  C      0.706539   -3.945355    0.000038
  H      2.514825   -7.715810   -0.000011

 Total Charge           Charge          ....    0
 Multiplicity           Mult            ....    1
 Number of Electrons    NEL             ....   42
 Basis Dimension        Dim             ....   96

ORBITAL ENERGIES
----------------

  NO   OCC          E(Eh)            E(eV)
   0   2.0000     -10.364181      -282.0237
   1   2.0000     -10.363861      -282.0150
   2   2.0000     -10.363788      -282.0130
   3   2.0000     -10.363033      -281.9925
   4   2.0000     -10.362957      -281.9904
   5   2.0000     -10.362620      -281.9812
   6   2.0000      -1.026905       -27.9435
   7   2.0000      -0.883317       -24.0363
   8   2.0000      -0.883250       -24.0345
   9   2.0000      -0.698483       -19.0067
  10   2.0000      -0.698293       -19.0015
  11   2.0000      -0.597646       -16.2628
  12   2.0000      -0.525106       -14.2889
  13   2.0000      -0.522069       -14.2062
  14   2.0000      -0.380264       -10.3475
  15   2.0000      -0.380077       -10.3424
  16   2.0000      -0.358497        -9.7552
  17   2.0000      -0.358175        -9.7464
  18   2.0000      -0.286216        -7.7883
  19   2.0000      -0.270292        -7.3550
  20   2.0000      -0.270280        -7.3547
  21   0.0000      -0.189743        -5.1632
  22   0.0000      -0.189740        -5.1631
  23   0.0000      -0.174356        -4.7445
  24   0.0000      -0.077260        -2.1024
  25   0.0000      -0.021175        -0.5762

MULLIKEN ATOMIC CHARGES
-----------------------
   0 C :    0.000600
   1 H :   -0.000415
   2 C :    0.000859
   3 H :   -0.000540
   4 C :   -0.000117
   5 H :   -0.000371
   6 C :    0.000572
   7 H :   -0.000414
   8 C :    0.000832
   9 H :   -0.000546
  10 C :   -0.000093
  11 H :   -0.000366
Sum of atomic charges:   -0.0000000

LOEWDIN ATOMIC CHARGES
----------------------
   0 C :    0.000619
   1 H :   -0.000621
   2 C :    0.000658
   3 H :   -0.000746
   4 C :    0.000677
   5 H :   -0.000577
   6 C :    0.000601
   7 H :   -0.000620
   8 C :    0.000628
   9 H :   -0.000752
  10 C :    0.000704
  11 H :   -0.000571

  Mayer bond orders larger than 0.1
B(  0-C ,  2-C ) :   1.8812 B(  0-C ,  6-C ) :   0.1503 B(  0-C , 10-C ) :   1.8816
B(  1-H ,  3-H ) :   0.4394 B(  1-H ,  7-H ) :   0.1088 B(  1-H , 11-H ) :   0.4396
B(  2-C ,  4-C ) :   1.8814 B(  2-C ,  8-C ) :   0.1501 B(  3-H ,  5-H ) :   0.4395
B(  3-H ,  9-H ) :   0.1088 B(  4-C ,  6-C ) :   1.8816 B(  4-C , 10-C ) :   0.1500
B(  5-H ,  7-H ) :   0.4392 B(  5-H , 11-H ) :   0.1090 B(  6-C ,  8-C ) :   1.8812
B(  7-H ,  9-H ) :   0.4398 B(  8-C , 10-C ) :   1.8814 B(  9-H , 11-H ) :   0.4391

Dispersion correction           -0.000968378
FINAL SINGLE POINT ENERGY      -230.619976643947

DIPOLE MOMENT
-------------
                                X             Y             Z
Electronic contribution:      0.00007       0.00016      -0.00000
Nuclear contribution   :      0.00011      -0.00016       0.00000
                        -----------------------------------------
Total Dipole Moment    :      0.00018      -0.00000      -0.00000
                        -----------------------------------------
Magnitude (a.u.)       :      0.00018
Magnitude (Debye)      :      0.00046

                             ****ORCA TERMINATED NORMALLY****
TOTAL RUN TIME: 0 days 0 hours 2 minutes 18 seconds 92 msec
