                         Program Version 4.0.0.2 - RELEASE -
|  1> ! WB97X-D3 6-31G(d) VerySlowConv
|  2> ! KDIIS NOSOSCF
|  3> %base "Scan_38"
|  4>
|  5> %scf
|  6> maxiter 999
|  7> end
|  8>
|  9> * xyz 0 1
| 10> C          1.459500016293   -2.844763366253   -0.000003670774
| 11> H          5.730936360754   -3.171855726947    0.000001096765
| 12> C          0.882820254846   -1.642392835138   -0.000049456167
| 13> H          3.301817174985    1.893227651058    0.000014633533
| 14> C         -0.446800525660   -1.540624778325   -0.000045157752
| 15> H         -2.299290781051    2.322074052490    0.000013024322
| 16> C         -1.199751421625   -2.641219876759    0.000003657077
| 17> H         -5.471197306571   -2.314254410841   -0.000001029797
| 18> C         -0.623080593445   -3.843591996906    0.000049433486
| 19> H         -3.041947209003   -7.379301785018   -0.000014508223
| 20> C          0.706543033370   -3.945360747793    0.000045135631
| 21> H          2.559060997107   -7.808046179568   -0.000013158100
| 22> **                         ****END OF INPUT****

CARTESIAN COORDINATES (ANGSTROEM)
---------------------------------
  C      1.459500   -2.844763   -0.000004
  H      5.730936   -3.171856    0.000001
  C      0.882820   -1.642393   -0.000049
  H      3.301817    1.893228    0.000015
  C     -0.446801   -1.540625   -0.000045
  H     -2.299291    2.322074    0.000013
  C     -1.199751   -2.641220    0.000004
  H     -5.471197   -2.314254   -0.000001
  C     -0.623081   -3.843592    0.000049
  H     -3.041947   -7.379302   -0.000015
  C      0.706543   -3.945361    0.000045
  H      2.559061   -7.808046   -0.000013

 Total Charge           Charge          ....    0
 Multiplicity           Mult            ....    1
 Number of Electrons    NEL             ....   42
 Basis Dimension        Dim             ....   96

ORBITAL ENERGIES
----------------

  NO   OCC          E(Eh)            E(eV)
   0   2.0000     -10.363557      -282.0067
   1   2.0000     -10.363243      -281.9982
   2   2.0000     -10.363159      -281.9959
   3   2.0000     -10.362416      -281.9757
   4   2.0000     -10.362325      -281.9732
   5   2.0000     -10.361995      -281.9642
   6   2.0000      -1.026317       -27.9275
   7   2.0000      -0.882775       -24.0215
   8   2.0000      -0.882715       -24.0199
   9   2.0000      -0.697963       -18.9925
  10   2.0000      -0.697775       -18.9874
  11   2.0000      -0.597114       -16.2483
  12   2.0000      -0.524617       -14.2756
  13   2.0000      -0.521696       -14.1961
  14   2.0000      -0.379793       -10.3347
  15   2.0000      -0.379596       -10.3293
  16   2.0000      -0.358118        -9.7449
  17   2.0000      -0.357798        -9.7362
  18   2.0000      -0.285067        -7.7571
  19   2.0000      -0.269409        -7.3310
  20   2.0000      -0.269403        -7.3308
  21   0.0000      -0.190541        -5.1849
  22   0.0000      -0.190536        -5.1848
  23   0.0000      -0.175240        -4.7685
  24   0.0000      -0.076884        -2.0921
  25   0.0000      -0.020804        -0.5661

MULLIKEN ATOMIC CHARGES
-----------------------
   0 C :    0.000348
   1 H :   -0.000154
   2 C :    0.000631
   3 H :   -0.000354
   4 C :   -0.000351
   5 H :   -0.000131
   6 C :    0.000346
   7 H :   -0.000155
   8 C :    0.000639
   9 H :   -0.000353
  10 C :   -0.000335
  11 H :   -0.000131
Sum of atomic charges:   -0.0000000

LOEWDIN ATOMIC CHARGES
----------------------
   0 C :    0.000268
   1 H :   -0.000308
   2 C :    0.000414
   3 H :   -0.000508
   4 C :    0.000409
   5 H :   -0.000285
   6 C :    0.000267
   7 H :   -0.000309
   8 C :    0.000418
   9 H :   -0.000507
  10 C :    0.000427
  11 H :   -0.000285

  Mayer bond orders larger than 0.1
B(  0-C ,  2-C ) :   1.8824 B(  0-C ,  6-C ) :   0.1507 B(  0-C , 10-C ) :   1.8828
B(  1-H ,  3-H ) :   0.4396 B(  1-H ,  7-H ) :   0.1097 B(  1-H , 11-H ) :   0.4426
B(  2-C ,  4-C ) :   1.8826 B(  2-C ,  8-C ) :   0.1506 B(  3-H ,  5-H ) :   0.4426
B(  3-H ,  9-H ) :   0.1097 B(  4-C ,  6-C ) :   1.8828 B(  4-C , 10-C ) :   0.1506
B(  5-H ,  7-H ) :   0.4398 B(  5-H , 11-H ) :   0.1096 B(  6-C ,  8-C ) :   1.8824
B(  7-H ,  9-H ) :   0.4424 B(  8-C , 10-C ) :   1.8826 B(  9-H , 11-H ) :   0.4398

Dispersion correction           -0.000866805
FINAL SINGLE POINT ENERGY      -230.616743820096

DIPOLE MOMENT
-------------
                                X             Y             Z
Electronic contribution:     -0.00010       0.00011      -0.00000
Nuclear contribution   :      0.00013      -0.00018       0.00000
                        -----------------------------------------
Total Dipole Moment    :      0.00003      -0.00006       0.00000
                        -----------------------------------------
Magnitude (a.u.)       :      0.00007
Magnitude (Debye)      :      0.00017

                             ****ORCA TERMINATED NORMALLY****
TOTAL RUN TIME: 0 days 0 hours 2 minutes 45 seconds 370 msec
