                         Program Version 4.0.0.2 - RELEASE -
|  1> ! WB97X-D3 6-31G(d) VerySlowConv
|  2> ! KDIIS NOSOSCF
|  3> %base "Scan_39"
|  4>
|  5> %scf
|  6> maxiter 999
|  7> end
|  8>
|  9> * xyz 0 1
| 10> C          1.459501621343   -2.844760172167   -0.000000886747
| 11> H          5.832923817697   -3.179666447972    0.000000473676
| 12> C          0.882819641775   -1.642386526923   -0.000057729601
| 13> H          3.359577611135    1.977648666520    0.000016847358
| 14> C         -0.446806409558   -1.540619965401   -0.000056484468
| 15> H         -2.343523684148    2.414307438851    0.000015967070
| 16> C         -1.199756350686   -2.641223115330    0.000000865685
| 17> H         -5.573188572741   -2.306447232709   -0.000000402053
| 18> C         -0.623078140725   -3.843597658975    0.000057708390
| 19> H         -3.099702539208   -7.463724282868   -0.000016719338
| 20> C          0.706548849261   -3.945363440795    0.000056464001
| 21> H          2.603294155854   -7.900277262230   -0.000016103974
| 22> **                         ****END OF INPUT****

CARTESIAN COORDINATES (ANGSTROEM)
---------------------------------
  C      1.459502   -2.844760   -0.000001
  H      5.832924   -3.179666    0.000000
  C      0.882820   -1.642387   -0.000058
  H      3.359578    1.977649    0.000017
  C     -0.446806   -1.540620   -0.000056
  H     -2.343524    2.414307    0.000016
  C     -1.199756   -2.641223    0.000001
  H     -5.573189   -2.306447   -0.000000
  C     -0.623078   -3.843598    0.000058
  H     -3.099703   -7.463724   -0.000017
  C      0.706549   -3.945363    0.000056
  H      2.603294   -7.900277   -0.000016

 Total Charge           Charge          ....    0
 Multiplicity           Mult            ....    1
 Number of Electrons    NEL             ....   42
 Basis Dimension        Dim             ....   96

ORBITAL ENERGIES
----------------

  NO   OCC          E(Eh)            E(eV)
   0   2.0000     -10.363120      -281.9948
   1   2.0000     -10.362812      -281.9865
   2   2.0000     -10.362714      -281.9838
   3   2.0000     -10.361984      -281.9639
   4   2.0000     -10.361877      -281.9610
   5   2.0000     -10.361555      -281.9522
   6   2.0000      -1.025911       -27.9165
   7   2.0000      -0.882404       -24.0114
   8   2.0000      -0.882341       -24.0097
   9   2.0000      -0.697600       -18.9827
  10   2.0000      -0.697418       -18.9777
  11   2.0000      -0.596745       -16.2383
  12   2.0000      -0.524280       -14.2664
  13   2.0000      -0.521430       -14.1888
  14   2.0000      -0.379468       -10.3258
  15   2.0000      -0.379265       -10.3203
  16   2.0000      -0.357850        -9.7376
  17   2.0000      -0.357528        -9.7288
  18   2.0000      -0.283995        -7.7279
  19   2.0000      -0.268606        -7.3091
  20   2.0000      -0.268593        -7.3088
  21   0.0000      -0.191281        -5.2050
  22   0.0000      -0.191277        -5.2049
  23   0.0000      -0.176125        -4.7926
  24   0.0000      -0.076603        -2.0845
  25   0.0000      -0.020505        -0.5580

MULLIKEN ATOMIC CHARGES
-----------------------
   0 C :    0.000184
   1 H :   -0.000053
   2 C :    0.000502
   3 H :   -0.000286
   4 C :   -0.000443
   5 H :    0.000124
   6 C :    0.000170
   7 H :   -0.000077
   8 C :    0.000517
   9 H :   -0.000262
  10 C :   -0.000472
  11 H :    0.000095
Sum of atomic charges:   -0.0000000

LOEWDIN ATOMIC CHARGES
----------------------
   0 C :    0.000133
   1 H :   -0.000166
   2 C :    0.000299
   3 H :   -0.000399
   4 C :    0.000144
   5 H :    0.000011
   6 C :    0.000126
   7 H :   -0.000189
   8 C :    0.000308
   9 H :   -0.000374
  10 C :    0.000124
  11 H :   -0.000017

  Mayer bond orders larger than 0.1
B(  0-C ,  2-C ) :   1.8833 B(  0-C ,  6-C ) :   0.1511 B(  0-C , 10-C ) :   1.8835
B(  1-H ,  3-H ) :   0.4437 B(  1-H ,  7-H ) :   0.1101 B(  1-H , 11-H ) :   0.4409
B(  2-C ,  4-C ) :   1.8833 B(  2-C ,  8-C ) :   0.1510 B(  3-H ,  5-H ) :   0.4408
B(  3-H ,  9-H ) :   0.1101 B(  4-C ,  6-C ) :   1.8836 B(  4-C , 10-C ) :   0.1509
B(  5-H ,  7-H ) :   0.4435 B(  5-H , 11-H ) :   0.1103 B(  6-C ,  8-C ) :   1.8832
B(  7-H ,  9-H ) :   0.4411 B(  8-C , 10-C ) :   1.8833 B(  9-H , 11-H ) :   0.4435

Dispersion correction           -0.000777466
FINAL SINGLE POINT ENERGY      -230.613813937724

DIPOLE MOMENT
-------------
                                X             Y             Z
Electronic contribution:     -0.00017       0.00025      -0.00000
Nuclear contribution   :      0.00013      -0.00018       0.00000
                        -----------------------------------------
Total Dipole Moment    :     -0.00004       0.00007      -0.00000
                        -----------------------------------------
Magnitude (a.u.)       :      0.00008
Magnitude (Debye)      :      0.00020

                             ****ORCA TERMINATED NORMALLY****
TOTAL RUN TIME: 0 days 0 hours 2 minutes 25 seconds 604 msec
