                         Program Version 4.0.0.2 - RELEASE -
|  1> ! WB97X-D3 6-31G(d) VerySlowConv
|  2> ! KDIIS NOSOSCF
|  3> %base "Scan_4"
|  4>
|  5> %scf
|  6> maxiter 999
|  7> end
|  8>
|  9> * xyz 0 1
| 10> C          1.518444194803   -2.849311792795   -0.000000000000
| 11> H          2.463260444077   -2.921643150113   -0.000000000000
| 12> C          0.916224941187   -1.593632200287    0.000000000000
| 13> H          1.451273931739   -0.811563054862    0.000000000000
| 14> C         -0.472335108433   -1.487329578641   -0.000000000000
| 15> H         -0.882102359979   -0.632928987638   -0.000000000000
| 16> C         -1.258675904614   -2.636706545046   -0.000000000000
| 17> H         -2.203492151701   -2.564375159859   -0.000000000000
| 18> C         -0.656456654468   -3.892386134502    0.000000000000
| 19> H         -1.191505529273   -4.674455359070    0.000000000000
| 20> C          0.732103393423   -3.998688761034   -0.000000000000
| 21> H          1.141870803239   -4.853089276153   -0.000000000000
| 22> **                         ****END OF INPUT****

CARTESIAN COORDINATES (ANGSTROEM)
---------------------------------
  C      1.518444   -2.849312   -0.000000
  H      2.463260   -2.921643   -0.000000
  C      0.916225   -1.593632    0.000000
  H      1.451274   -0.811563    0.000000
  C     -0.472335   -1.487330   -0.000000
  H     -0.882102   -0.632929   -0.000000
  C     -1.258676   -2.636707   -0.000000
  H     -2.203492   -2.564375   -0.000000
  C     -0.656457   -3.892386    0.000000
  H     -1.191506   -4.674455    0.000000
  C      0.732103   -3.998689   -0.000000
  H      1.141871   -4.853089   -0.000000

 Total Charge           Charge          ....    0
 Multiplicity           Mult            ....    1
 Number of Electrons    NEL             ....   42
 Basis Dimension        Dim             ....   96

ORBITAL ENERGIES
----------------

  NO   OCC          E(Eh)            E(eV)
   0   2.0000     -10.263526      -279.2847
   1   2.0000     -10.263364      -279.2803
   2   2.0000     -10.263268      -279.2777
   3   2.0000     -10.262863      -279.2667
   4   2.0000     -10.262775      -279.2643
   5   2.0000     -10.262609      -279.2598
   6   2.0000      -0.967691       -26.3322
   7   2.0000      -0.866839       -23.5879
   8   2.0000      -0.866779       -23.5862
   9   2.0000      -0.727267       -19.7899
  10   2.0000      -0.727198       -19.7881
  11   2.0000      -0.649868       -17.6838
  12   2.0000      -0.601392       -16.3647
  13   2.0000      -0.533868       -14.5273
  14   2.0000      -0.529795       -14.4165
  15   2.0000      -0.529596       -14.4110
  16   2.0000      -0.460094       -12.5198
  17   2.0000      -0.441305       -12.0085
  18   2.0000      -0.441014       -12.0006
  19   2.0000      -0.328040        -8.9264
  20   2.0000      -0.327907        -8.9228
  21   0.0000       0.084775         2.3068
  22   0.0000       0.084980         2.3124
  23   0.0000       0.229916         6.2563
  24   0.0000       0.264165         7.1883
  25   0.0000       0.276246         7.5170

MULLIKEN ATOMIC CHARGES
-----------------------
   0 C :   -0.153189
   1 H :    0.152223
   2 C :   -0.148772
   3 H :    0.150347
   4 C :   -0.149823
   5 H :    0.149214
   6 C :   -0.153189
   7 H :    0.152223
   8 C :   -0.148772
   9 H :    0.150347
  10 C :   -0.149823
  11 H :    0.149214
Sum of atomic charges:    0.0000000

LOEWDIN ATOMIC CHARGES
----------------------
   0 C :   -0.139400
   1 H :    0.139254
   2 C :   -0.138657
   3 H :    0.138826
   4 C :   -0.138693
   5 H :    0.138670
   6 C :   -0.139400
   7 H :    0.139254
   8 C :   -0.138657
   9 H :    0.138826
  10 C :   -0.138693
  11 H :    0.138670

  Mayer bond orders larger than 0.1
B(  0-C ,  1-H ) :   0.9384 B(  0-C ,  2-C ) :   1.4661 B(  0-C , 10-C ) :   1.4674
B(  2-C ,  3-H ) :   0.9387 B(  2-C ,  4-C ) :   1.4678 B(  4-C ,  5-H ) :   0.9391
B(  4-C ,  6-C ) :   1.4674 B(  6-C ,  7-H ) :   0.9384 B(  6-C ,  8-C ) :   1.4661
B(  8-C ,  9-H ) :   0.9387 B(  8-C , 10-C ) :   1.4678 B( 10-C , 11-H ) :   0.9391

Dispersion correction           -0.002182217
FINAL SINGLE POINT ENERGY      -232.072233993936

DIPOLE MOMENT
-------------
                                X             Y             Z
Electronic contribution:     -0.00000      -0.00000       0.00000
Nuclear contribution   :      0.00000       0.00000       0.00000
                        -----------------------------------------
Total Dipole Moment    :      0.00000       0.00000       0.00000
                        -----------------------------------------
Magnitude (a.u.)       :      0.00000
Magnitude (Debye)      :      0.00000

                             ****ORCA TERMINATED NORMALLY****
TOTAL RUN TIME: 0 days 0 hours 0 minutes 55 seconds 803 msec
