                         Program Version 4.0.0.2 - RELEASE -
|  1> ! WB97X-D3 6-31G(d) VerySlowConv
|  2> ! KDIIS NOSOSCF
|  3> %base "Scan_40"
|  4>
|  5> %scf
|  6> maxiter 999
|  7> end
|  8>
|  9> * xyz 0 1
| 10> C          1.459505056146   -2.844754549780   -0.000003513417
| 11> H          5.934911444247   -3.187477616071    0.000001079569
| 12> C          0.882815657047   -1.642379871182   -0.000070889634
| 13> H          3.417337225052    2.062066235375    0.000020232439
| 14> C         -0.446812243676   -1.540619985126   -0.000066703309
| 15> H         -2.387753446495    2.506535420246    0.000018620625
| 16> C         -1.199760673095   -2.641225905807    0.000003491204
| 17> H         -5.675177611108   -2.298640644811   -0.000001006718
| 18> C         -0.623077285022   -3.843601539251    0.000070866988
| 19> H         -3.157456319918   -7.548145215058   -0.000020100104
| 20> C          0.706552913567   -3.945362953994    0.000066681125
| 21> H          2.647525283255   -7.992503374541   -0.000018758769
| 22> **                         ****END OF INPUT****

CARTESIAN COORDINATES (ANGSTROEM)
---------------------------------
  C      1.459505   -2.844755   -0.000004
  H      5.934911   -3.187478    0.000001
  C      0.882816   -1.642380   -0.000071
  H      3.417337    2.062066    0.000020
  C     -0.446812   -1.540620   -0.000067
  H     -2.387753    2.506535    0.000019
  C     -1.199761   -2.641226    0.000003
  H     -5.675178   -2.298641   -0.000001
  C     -0.623077   -3.843602    0.000071
  H     -3.157456   -7.548145   -0.000020
  C      0.706553   -3.945363    0.000067
  H      2.647525   -7.992503   -0.000019

 Total Charge           Charge          ....    0
 Multiplicity           Mult            ....    1
 Number of Electrons    NEL             ....   42
 Basis Dimension        Dim             ....   96

ORBITAL ENERGIES
----------------

  NO   OCC          E(Eh)            E(eV)
   0   2.0000     -10.362844      -281.9873
   1   2.0000     -10.362536      -281.9789
   2   2.0000     -10.362439      -281.9763
   3   2.0000     -10.361708      -281.9564
   4   2.0000     -10.361603      -281.9535
   5   2.0000     -10.361279      -281.9447
   6   2.0000      -1.025658       -27.9096
   7   2.0000      -0.882174       -24.0052
   8   2.0000      -0.882109       -24.0034
   9   2.0000      -0.697376       -18.9766
  10   2.0000      -0.697196       -18.9717
  11   2.0000      -0.596516       -16.2320
  12   2.0000      -0.524072       -14.2607
  13   2.0000      -0.521271       -14.1845
  14   2.0000      -0.379265       -10.3203
  15   2.0000      -0.379063       -10.3148
  16   2.0000      -0.357687        -9.7332
  17   2.0000      -0.357368        -9.7245
  18   2.0000      -0.282965        -7.6999
  19   2.0000      -0.267844        -7.2884
  20   2.0000      -0.267821        -7.2878
  21   0.0000      -0.191974        -5.2239
  22   0.0000      -0.191939        -5.2229
  23   0.0000      -0.176983        -4.8159
  24   0.0000      -0.076436        -2.0799
  25   0.0000      -0.020327        -0.5531

MULLIKEN ATOMIC CHARGES
-----------------------
   0 C :    0.000072
   1 H :   -0.000064
   2 C :    0.000438
   3 H :   -0.000199
   4 C :   -0.000475
   5 H :    0.000230
   6 C :    0.000077
   7 H :   -0.000063
   8 C :    0.000445
   9 H :   -0.000198
  10 C :   -0.000492
  11 H :    0.000229
Sum of atomic charges:   -0.0000000

LOEWDIN ATOMIC CHARGES
----------------------
   0 C :    0.000058
   1 H :   -0.000145
   2 C :    0.000207
   3 H :   -0.000280
   4 C :    0.000011
   5 H :    0.000149
   6 C :    0.000064
   7 H :   -0.000143
   8 C :    0.000211
   9 H :   -0.000279
  10 C :   -0.000002
  11 H :    0.000148

  Mayer bond orders larger than 0.1
B(  0-C ,  2-C ) :   1.8837 B(  0-C ,  6-C ) :   0.1513 B(  0-C , 10-C ) :   1.8840
B(  1-H ,  3-H ) :   0.4373 B(  1-H ,  7-H ) :   0.1108 B(  1-H , 11-H ) :   0.4484
B(  2-C ,  4-C ) :   1.8838 B(  2-C ,  8-C ) :   0.1512 B(  3-H ,  5-H ) :   0.4482
B(  3-H ,  9-H ) :   0.1110 B(  4-C ,  6-C ) :   1.8840 B(  4-C , 10-C ) :   0.1511
B(  5-H ,  7-H ) :   0.4387 B(  5-H , 11-H ) :   0.1097 B(  6-C ,  8-C ) :   1.8838
B(  7-H ,  9-H ) :   0.4470 B(  8-C , 10-C ) :   1.8838 B(  9-H , 11-H ) :   0.4385

Dispersion correction           -0.000699277
FINAL SINGLE POINT ENERGY      -230.611116321948

DIPOLE MOMENT
-------------
                                X             Y             Z
Electronic contribution:     -0.00021       0.00022      -0.00000
Nuclear contribution   :      0.00014      -0.00019       0.00000
                        -----------------------------------------
Total Dipole Moment    :     -0.00007       0.00002       0.00000
                        -----------------------------------------
Magnitude (a.u.)       :      0.00007
Magnitude (Debye)      :      0.00018

                             ****ORCA TERMINATED NORMALLY****
TOTAL RUN TIME: 0 days 0 hours 2 minutes 18 seconds 231 msec
