                         Program Version 4.0.0.2 - RELEASE -
|  1> ! WB97X-D3 6-31G(d) VerySlowConv
|  2> ! KDIIS NOSOSCF
|  3> %base "Scan_41"
|  4>
|  5> %scf
|  6> maxiter 999
|  7> end
|  8>
|  9> * xyz 0 1
| 10> C          1.459509709515   -2.844750559538    0.000001090793
| 11> H          6.036898910803   -3.195287775935    0.000000053360
| 12> C          0.882816979178   -1.642374047930   -0.000082312616
| 13> H          3.475094676638    2.146486435729    0.000023195943
| 14> C         -0.446818022764   -1.540617646244   -0.000082945623
| 15> H         -2.431984635173    2.598763780936    0.000022676848
| 16> C         -1.199768585833   -2.641232623575   -0.000001115118
| 17> H         -5.777168325662   -2.290831902590    0.000000022416
| 18> C         -0.623072960460   -3.843609715778    0.000082288606
| 19> H         -3.215212428359   -7.632564714998   -0.000023059869
| 20> C          0.706560253182   -3.945361561176    0.000082922261
| 21> H          2.691754428935   -8.084729668899   -0.000022817004
| 22> **                         ****END OF INPUT****

CARTESIAN COORDINATES (ANGSTROEM)
---------------------------------
  C      1.459510   -2.844751    0.000001
  H      6.036899   -3.195288    0.000000
  C      0.882817   -1.642374   -0.000082
  H      3.475095    2.146486    0.000023
  C     -0.446818   -1.540618   -0.000083
  H     -2.431985    2.598764    0.000023
  C     -1.199769   -2.641233   -0.000001
  H     -5.777168   -2.290832    0.000000
  C     -0.623073   -3.843610    0.000082
  H     -3.215212   -7.632565   -0.000023
  C      0.706560   -3.945362    0.000083
  H      2.691754   -8.084730   -0.000023

 Total Charge           Charge          ....    0
 Multiplicity           Mult            ....    1
 Number of Electrons    NEL             ....   42
 Basis Dimension        Dim             ....   96

ORBITAL ENERGIES
----------------

  NO   OCC          E(Eh)            E(eV)
   0   2.0000     -10.320101      -280.8242
   1   2.0000     -10.319942      -280.8199
   2   2.0000     -10.319316      -280.8029
   3   2.0000     -10.319143      -280.7981
   4   2.0000     -10.312760      -280.6245
   5   2.0000     -10.312732      -280.6237
   6   2.0000      -0.985669       -26.8214
   7   2.0000      -0.842337       -22.9212
   8   2.0000      -0.841103       -22.8876
   9   2.0000      -0.656899       -17.8751
  10   2.0000      -0.656351       -17.8602
  11   2.0000      -0.554499       -15.0887
  12   2.0000      -0.485069       -13.1994
  13   2.0000      -0.481838       -13.1115
  14   2.0000      -0.340701        -9.2709
  15   2.0000      -0.339136        -9.2283
  16   2.0000      -0.322925        -8.7872
  17   2.0000      -0.315221        -8.5776
  18   2.0000      -0.154168        -4.1951
  19   2.0000      -0.145818        -3.9679
  20   2.0000      -0.128551        -3.4981
  21   0.0000      -0.386637       -10.5209
  22   0.0000      -0.385720       -10.4960
  23   0.0000      -0.079643        -2.1672
  24   0.0000      -0.047134        -1.2826
  25   0.0000       0.009807         0.2669

MULLIKEN ATOMIC CHARGES
-----------------------
   0 C :   -0.003008
   1 H :   -0.434708
   2 C :   -0.002904
   3 H :   -0.434537
   4 C :   -0.125292
   5 H :    0.999897
   6 C :   -0.003101
   7 H :   -0.433901
   8 C :   -0.002403
   9 H :   -0.434536
  10 C :   -0.125279
  11 H :    0.999773
Sum of atomic charges:   -0.0000000

LOEWDIN ATOMIC CHARGES
----------------------
   0 C :   -0.012323
   1 H :   -0.434860
   2 C :   -0.012370
   3 H :   -0.434690
   4 C :   -0.106425
   5 H :    0.999897
   6 C :   -0.012298
   7 H :   -0.434053
   8 C :   -0.011753
   9 H :   -0.434687
  10 C :   -0.106210
  11 H :    0.999772

  Mayer bond orders larger than 0.1
B(  0-C ,  2-C ) :   1.8595 B(  0-C ,  6-C ) :   0.1532 B(  0-C , 10-C ) :   1.8447
B(  1-H ,  3-H ) :   0.1934 B(  1-H ,  7-H ) :   0.2937 B(  1-H ,  9-H ) :   0.2042
B(  2-C ,  4-C ) :   1.8429 B(  2-C ,  8-C ) :   0.1531 B(  3-H ,  7-H ) :   0.1939
B(  3-H ,  9-H ) :   0.2933 B(  4-C ,  6-C ) :   1.8439 B(  4-C , 10-C ) :   0.1635
B(  6-C ,  8-C ) :   1.8615 B(  7-H ,  9-H ) :   0.2014 B(  8-C , 10-C ) :   1.8453

Dispersion correction           -0.000631038
FINAL SINGLE POINT ENERGY      -230.189090908100

DIPOLE MOMENT
-------------
                                X             Y             Z
Electronic contribution:     -0.01139      -0.00249      -0.00000
Nuclear contribution   :      0.00013      -0.00019       0.00000
                        -----------------------------------------
Total Dipole Moment    :     -0.01126      -0.00268      -0.00000
                        -----------------------------------------
Magnitude (a.u.)       :      0.01157
Magnitude (Debye)      :      0.02942

                             ****ORCA TERMINATED NORMALLY****
TOTAL RUN TIME: 0 days 0 hours 5 minutes 56 seconds 677 msec
