                         Program Version 4.0.0.2 - RELEASE -
|  1> ! WB97X-D3 6-31G(d) VerySlowConv
|  2> ! KDIIS NOSOSCF
|  3> %base "Scan_42"
|  4>
|  5> %scf
|  6> maxiter 999
|  7> end
|  8>
|  9> * xyz 0 1
| 10> C          1.459508771324   -2.844741613143    0.000000234752
| 11> H          6.138878489363   -3.203099013495    0.000000218770
| 12> C          0.882808228520   -1.642365667217   -0.000099387626
| 13> H          3.532852626843    2.230899908169    0.000027469017
| 14> C         -0.446828376832   -1.540613514315   -0.000098563466
| 15> H         -2.476215771894    2.690994833989    0.000026554942
| 16> C         -1.199766693787   -2.641235775251   -0.000000259917
| 17> H         -5.879147648772   -2.283026234599   -0.000000139958
| 18> C         -0.623071015707   -3.843613039415    0.000099362664
| 19> H         -3.272964343492   -7.716981940749   -0.000027330040
| 20> C          0.706568457967   -3.945367275117    0.000098537346
| 21> H          2.735987276468   -8.176960668857   -0.000026696483
| 22> **                         ****END OF INPUT****

CARTESIAN COORDINATES (ANGSTROEM)
---------------------------------
  C      1.459509   -2.844742    0.000000
  H      6.138878   -3.203099    0.000000
  C      0.882808   -1.642366   -0.000099
  H      3.532853    2.230900    0.000027
  C     -0.446828   -1.540614   -0.000099
  H     -2.476216    2.690995    0.000027
  C     -1.199767   -2.641236   -0.000000
  H     -5.879148   -2.283026   -0.000000
  C     -0.623071   -3.843613    0.000099
  H     -3.272964   -7.716982   -0.000027
  C      0.706568   -3.945367    0.000099
  H      2.735987   -8.176961   -0.000027

 Total Charge           Charge          ....    0
 Multiplicity           Mult            ....    1
 Number of Electrons    NEL             ....   42
 Basis Dimension        Dim             ....   96

ORBITAL ENERGIES
----------------

  NO   OCC          E(Eh)            E(eV)
   0   2.0000     -10.362576      -281.9800
   1   2.0000     -10.362270      -281.9717
   2   2.0000     -10.362166      -281.9689
   3   2.0000     -10.361442      -281.9492
   4   2.0000     -10.361329      -281.9461
   5   2.0000     -10.361009      -281.9374
   6   2.0000      -1.025407       -27.9027
   7   2.0000      -0.881947       -23.9990
   8   2.0000      -0.881882       -23.9972
   9   2.0000      -0.697157       -18.9706
  10   2.0000      -0.696979       -18.9658
  11   2.0000      -0.596292       -16.2259
  12   2.0000      -0.523867       -14.2551
  13   2.0000      -0.521123       -14.1805
  14   2.0000      -0.379068       -10.3150
  15   2.0000      -0.378865       -10.3095
  16   2.0000      -0.357540        -9.7292
  17   2.0000      -0.357222        -9.7205
  18   2.0000      -0.281034        -7.6473
  19   2.0000      -0.266423        -7.2497
  20   2.0000      -0.266390        -7.2488
  21   0.0000      -0.193213        -5.2576
  22   0.0000      -0.193174        -5.2565
  23   0.0000      -0.178635        -4.8609
  24   0.0000      -0.076290        -2.0760
  25   0.0000      -0.020177        -0.5490

MULLIKEN ATOMIC CHARGES
-----------------------
   0 C :    0.000038
   1 H :   -0.000060
   2 C :    0.000400
   3 H :   -0.000125
   4 C :   -0.000539
   5 H :    0.000265
   6 C :    0.000089
   7 H :   -0.000040
   8 C :    0.000399
   9 H :   -0.000139
  10 C :   -0.000566
  11 H :    0.000277
Sum of atomic charges:   -0.0000000

LOEWDIN ATOMIC CHARGES
----------------------
   0 C :   -0.000020
   1 H :   -0.000098
   2 C :    0.000113
   3 H :   -0.000164
   4 C :   -0.000076
   5 H :    0.000226
   6 C :    0.000024
   7 H :   -0.000079
   8 C :    0.000113
   9 H :   -0.000178
  10 C :   -0.000100
  11 H :    0.000238

  Mayer bond orders larger than 0.1
B(  0-C ,  2-C ) :   1.8842 B(  0-C ,  6-C ) :   0.1516 B(  0-C , 10-C ) :   1.8845
B(  1-H ,  3-H ) :   0.4381 B(  1-H ,  7-H ) :   0.1103 B(  1-H , 11-H ) :   0.4502
B(  2-C ,  4-C ) :   1.8843 B(  2-C ,  8-C ) :   0.1515 B(  3-H ,  5-H ) :   0.4485
B(  3-H ,  9-H ) :   0.1120 B(  4-C ,  6-C ) :   1.8845 B(  4-C , 10-C ) :   0.1513
B(  5-H ,  7-H ) :   0.4398 B(  5-H , 11-H ) :   0.1104 B(  6-C ,  8-C ) :   1.8842
B(  7-H ,  9-H ) :   0.4485 B(  8-C , 10-C ) :   1.8843 B(  9-H , 11-H ) :   0.4381

Dispersion correction           -0.000571545
FINAL SINGLE POINT ENERGY      -230.606234777825

DIPOLE MOMENT
-------------
                                X             Y             Z
Electronic contribution:     -0.00037       0.00030      -0.00000
Nuclear contribution   :      0.00015      -0.00020       0.00000
                        -----------------------------------------
Total Dipole Moment    :     -0.00022       0.00010      -0.00000
                        -----------------------------------------
Magnitude (a.u.)       :      0.00024
Magnitude (Debye)      :      0.00062

                             ****ORCA TERMINATED NORMALLY****
TOTAL RUN TIME: 0 days 0 hours 1 minutes 54 seconds 985 msec
