                         Program Version 4.0.0.2 - RELEASE -
|  1> ! WB97X-D3 6-31G(d) VerySlowConv
|  2> ! KDIIS NOSOSCF
|  3> %base "Scan_43"
|  4>
|  5> %scf
|  6> maxiter 999
|  7> end
|  8>
|  9> * xyz 0 1
| 10> C          1.459511581474   -2.844735354196   -0.000002916929
| 11> H          6.240861757245   -3.210909303327    0.000000925013
| 12> C          0.882805928755   -1.642356317053   -0.000120413901
| 13> H          3.590611283460    2.315317438645    0.000032583684
| 14> C         -0.446837865703   -1.540611676807   -0.000116163247
| 15> H         -2.520445321254    2.783222787160    0.000030905107
| 16> C         -1.199773781440   -2.641244003206    0.000002890379
| 17> H         -5.981135145738   -2.275217979318   -0.000000844256
| 18> C         -0.623065033360   -3.843620887465    0.000120386061
| 19> H         -3.330718385794   -7.801398811621   -0.000032439812
| 20> C          0.706577562197   -3.945368538571    0.000116136396
| 21> H          2.780217420157   -8.269187354242   -0.000031048495
| 22> **                         ****END OF INPUT****

CARTESIAN COORDINATES (ANGSTROEM)
---------------------------------
  C      1.459512   -2.844735   -0.000003
  H      6.240862   -3.210909    0.000001
  C      0.882806   -1.642356   -0.000120
  H      3.590611    2.315317    0.000033
  C     -0.446838   -1.540612   -0.000116
  H     -2.520445    2.783223    0.000031
  C     -1.199774   -2.641244    0.000003
  H     -5.981135   -2.275218   -0.000001
  C     -0.623065   -3.843621    0.000120
  H     -3.330718   -7.801399   -0.000032
  C      0.706578   -3.945369    0.000116
  H      2.780217   -8.269187   -0.000031

 Total Charge           Charge          ....    0
 Multiplicity           Mult            ....    1
 Number of Electrons    NEL             ....   42
 Basis Dimension        Dim             ....   96

ORBITAL ENERGIES
----------------

  NO   OCC          E(Eh)            E(eV)
   0   2.0000     -10.018871      -272.6273
   1   2.0000     -10.018657      -272.6215
   2   2.0000     -10.018249      -272.6104
   3   2.0000     -10.017849      -272.5995
   4   2.0000     -10.017195      -272.5817
   5   2.0000     -10.017048      -272.5777
   6   2.0000      -0.718784       -19.5591
   7   2.0000      -0.571841       -15.5606
   8   2.0000      -0.570807       -15.5324
   9   2.0000      -0.384785       -10.4705
  10   2.0000      -0.384288       -10.4570
  11   2.0000      -0.357010        -9.7147
  12   2.0000      -0.271870        -7.3980
  13   2.0000      -0.223431        -6.0799
  14   2.0000      -0.215990        -5.8774
  15   2.0000      -0.210532        -5.7289
  16   2.0000      -0.077341        -2.1046
  17   2.0000      -0.075914        -2.0657
  18   2.0000      -0.059855        -1.6287
  19   2.0000      -0.056021        -1.5244
  20   2.0000       0.034232         0.9315
  21   0.0000      -0.310455        -8.4479
  22   0.0000      -0.292262        -7.9529
  23   0.0000      -0.288932        -7.8623
  24   0.0000      -0.167407        -4.5554
  25   0.0000       0.254521         6.9259

MULLIKEN ATOMIC CHARGES
-----------------------
   0 C :   -0.346285
   1 H :    0.499483
   2 C :   -0.305991
   3 H :   -0.000429
   4 C :   -0.346875
   5 H :    0.499762
   6 C :   -0.346141
   7 H :    0.499588
   8 C :   -0.306113
   9 H :    0.000382
  10 C :   -0.347165
  11 H :    0.499784
Sum of atomic charges:   -0.0000000

LOEWDIN ATOMIC CHARGES
----------------------
   0 C :   -0.340957
   1 H :    0.499480
   2 C :   -0.317046
   3 H :   -0.000436
   4 C :   -0.341142
   5 H :    0.499759
   6 C :   -0.340838
   7 H :    0.499585
   8 C :   -0.317160
   9 H :    0.000376
  10 C :   -0.341403
  11 H :    0.499782

  Mayer bond orders larger than 0.1
B(  0-C ,  2-C ) :   1.7076 B(  0-C ,  4-C ) :   0.1143 B(  0-C ,  6-C ) :   0.3101
B(  0-C ,  8-C ) :   0.1105 B(  0-C , 10-C ) :   1.6959 B(  1-H ,  5-H ) :   0.2499
B(  1-H ,  7-H ) :   0.2498 B(  1-H , 11-H ) :   0.2502 B(  2-C ,  4-C ) :   1.7074
B(  2-C ,  6-C ) :   0.1106 B(  2-C ,  8-C ) :   0.3195 B(  2-C , 10-C ) :   0.1101
B(  3-H ,  9-H ) :   0.9998 B(  4-C ,  6-C ) :   1.6959 B(  4-C ,  8-C ) :   0.1102
B(  4-C , 10-C ) :   0.3104 B(  5-H ,  7-H ) :   0.2501 B(  5-H , 11-H ) :   0.2496
B(  6-C ,  8-C ) :   1.7075 B(  6-C , 10-C ) :   0.1143 B(  7-H , 11-H ) :   0.2498
B(  8-C , 10-C ) :   1.7074

Dispersion correction           -0.000519676
FINAL SINGLE POINT ENERGY      -230.045666247458

DIPOLE MOMENT
-------------
                                X             Y             Z
Electronic contribution:     -0.00696      -0.00690      -0.00000
Nuclear contribution   :      0.00015      -0.00020       0.00000
                        -----------------------------------------
Total Dipole Moment    :     -0.00681      -0.00710      -0.00000
                        -----------------------------------------
Magnitude (a.u.)       :      0.00984
Magnitude (Debye)      :      0.02501

                             ****ORCA TERMINATED NORMALLY****
TOTAL RUN TIME: 0 days 0 hours 9 minutes 8 seconds 707 msec
