                         Program Version 4.0.0.2 - RELEASE -
|  1> ! WB97X-D3 6-31G(d) VerySlowConv
|  2> ! KDIIS NOSOSCF
|  3> %base "Scan_44"
|  4>
|  5> %scf
|  6> maxiter 999
|  7> end
|  8>
|  9> * xyz 0 1
| 10> C          1.459518042078   -2.844725629629   -0.000015288502
| 11> H          6.342847167526   -3.218720499838    0.000003210538
| 12> C          0.882800348429   -1.642349560769   -0.000150653753
| 13> H          3.648366621884    2.399731579303    0.000040128928
| 14> C         -0.446847691073   -1.540614864282   -0.000131619462
| 15> H         -2.564671623578    2.875446621682    0.000034364495
| 16> C         -1.199779411159   -2.641253751969    0.000015266447
| 17> H         -6.083120068055   -2.267408502147   -0.000003131451
| 18> C         -0.623061144276   -3.843628538239    0.000150622043
| 19> H         -3.388471655290   -7.885816208935   -0.000039979609
| 20> C          0.706585260653   -3.945362885353    0.000131586813
| 21> H          2.824444152861   -8.361407759825   -0.000034506488
| 22> **                         ****END OF INPUT****

CARTESIAN COORDINATES (ANGSTROEM)
---------------------------------
  C      1.459518   -2.844726   -0.000015
  H      6.342847   -3.218720    0.000003
  C      0.882800   -1.642350   -0.000151
  H      3.648367    2.399732    0.000040
  C     -0.446848   -1.540615   -0.000132
  H     -2.564672    2.875447    0.000034
  C     -1.199779   -2.641254    0.000015
  H     -6.083120   -2.267409   -0.000003
  C     -0.623061   -3.843629    0.000151
  H     -3.388472   -7.885816   -0.000040
  C      0.706585   -3.945363    0.000132
  H      2.824444   -8.361408   -0.000035

 Total Charge           Charge          ....    0
 Multiplicity           Mult            ....    1
 Number of Electrons    NEL             ....   42
 Basis Dimension        Dim             ....   96

ORBITAL ENERGIES
----------------

  NO   OCC          E(Eh)            E(eV)
   0   2.0000     -10.362404      -281.9754
   1   2.0000     -10.362091      -281.9668
   2   2.0000     -10.362005      -281.9645
   3   2.0000     -10.361264      -281.9443
   4   2.0000     -10.361171      -281.9418
   5   2.0000     -10.360841      -281.9328
   6   2.0000      -1.025249       -27.8984
   7   2.0000      -0.881800       -23.9950
   8   2.0000      -0.881742       -23.9934
   9   2.0000      -0.697022       -18.9669
  10   2.0000      -0.696838       -18.9619
  11   2.0000      -0.596148       -16.2220
  12   2.0000      -0.523736       -14.2516
  13   2.0000      -0.521024       -14.1778
  14   2.0000      -0.378942       -10.3115
  15   2.0000      -0.378739       -10.3060
  16   2.0000      -0.357454        -9.7268
  17   2.0000      -0.357124        -9.7179
  18   2.0000      -0.272188        -7.4066
  19   2.0000      -0.272171        -7.4061
  20   2.0000      -0.251004        -6.8302
  21   0.0000      -0.208540        -5.6747
  22   0.0000      -0.187284        -5.0962
  23   0.0000      -0.187258        -5.0956
  24   0.0000      -0.076193        -2.0733
  25   0.0000      -0.020071        -0.5462

MULLIKEN ATOMIC CHARGES
-----------------------
   0 C :    0.000024
   1 H :    0.000058
   2 C :    0.000347
   3 H :   -0.000149
   4 C :   -0.000577
   5 H :    0.000303
   6 C :    0.000051
   7 H :    0.000104
   8 C :    0.000361
   9 H :   -0.000154
  10 C :   -0.000578
  11 H :    0.000209
Sum of atomic charges:   -0.0000000

LOEWDIN ATOMIC CHARGES
----------------------
   0 C :   -0.000082
   1 H :    0.000047
   2 C :    0.000038
   3 H :   -0.000165
   4 C :   -0.000116
   5 H :    0.000288
   6 C :   -0.000058
   7 H :    0.000092
   8 C :    0.000050
   9 H :   -0.000169
  10 C :   -0.000116
  11 H :    0.000193

  Mayer bond orders larger than 0.1
B(  0-C ,  2-C ) :   1.8845 B(  0-C ,  6-C ) :   0.1517 B(  0-C , 10-C ) :   1.8848
B(  1-H ,  7-H ) :   0.9997 B(  2-C ,  4-C ) :   1.8844 B(  2-C ,  8-C ) :   0.1516
B(  3-H ,  5-H ) :   0.9996 B(  4-C ,  6-C ) :   1.8848 B(  4-C , 10-C ) :   0.1514
B(  6-C ,  8-C ) :   1.8845 B(  8-C , 10-C ) :   1.8844 B(  9-H , 11-H ) :   0.9996

Dispersion correction           -0.000474411
FINAL SINGLE POINT ENERGY      -230.587705258112

DIPOLE MOMENT
-------------
                                X             Y             Z
Electronic contribution:     -0.00123       0.00126      -0.00000
Nuclear contribution   :      0.00016      -0.00021       0.00000
                        -----------------------------------------
Total Dipole Moment    :     -0.00108       0.00106       0.00000
                        -----------------------------------------
Magnitude (a.u.)       :      0.00151
Magnitude (Debye)      :      0.00384

                             ****ORCA TERMINATED NORMALLY****
TOTAL RUN TIME: 0 days 0 hours 7 minutes 0 seconds 805 msec
