                         Program Version 4.0.0.2 - RELEASE -
|  1> ! WB97X-D3 6-31G(d) VerySlowConv
|  2> ! KDIIS NOSOSCF
|  3> %base "Scan_45"
|  4>
|  5> %scf
|  6> maxiter 999
|  7> end
|  8>
|  9> * xyz 0 1
| 10> C          1.459517757301   -2.844710581651   -0.000019347429
| 11> H          6.444824956961   -3.226533695416    0.000004389070
| 12> C          0.882785067296   -1.642340907172   -0.000178352230
| 13> H          3.706123438505    2.484139178815    0.000046459166
| 14> C         -0.446859295098   -1.540610093996   -0.000157980990
| 15> H         -2.608902621016    2.967675785251    0.000040826167
| 16> C         -1.199775345646   -2.641257859649    0.000019316069
| 17> H         -6.185095795161   -2.259604528990   -0.000004304423
| 18> C         -0.623055124803   -3.843636866780    0.000178323287
| 19> H         -3.446224566562   -7.970232295326   -0.000046308326
| 20> C          0.706598587267   -3.945363456106    0.000157950227
| 21> H          2.868672940955   -8.453634678979   -0.000040970589
| 22> **                         ****END OF INPUT****

CARTESIAN COORDINATES (ANGSTROEM)
---------------------------------
  C      1.459518   -2.844711   -0.000019
  H      6.444825   -3.226534    0.000004
  C      0.882785   -1.642341   -0.000178
  H      3.706123    2.484139    0.000046
  C     -0.446859   -1.540610   -0.000158
  H     -2.608903    2.967676    0.000041
  C     -1.199775   -2.641258    0.000019
  H     -6.185096   -2.259605   -0.000004
  C     -0.623055   -3.843637    0.000178
  H     -3.446225   -7.970232   -0.000046
  C      0.706599   -3.945363    0.000158
  H      2.868673   -8.453635   -0.000041

 Total Charge           Charge          ....    0
 Multiplicity           Mult            ....    1
 Number of Electrons    NEL             ....   42
 Basis Dimension        Dim             ....   96

ORBITAL ENERGIES
----------------

  NO   OCC          E(Eh)            E(eV)
   0   2.0000     -10.396595      -282.9057
   1   2.0000     -10.390885      -282.7503
   2   2.0000     -10.377559      -282.3877
   3   2.0000     -10.371373      -282.2194
   4   2.0000     -10.364312      -282.0273
   5   2.0000     -10.358933      -281.8809
   6   2.0000      -1.054075       -28.6828
   7   2.0000      -0.909423       -24.7467
   8   2.0000      -0.898797       -24.4575
   9   2.0000      -0.720191       -19.5974
  10   2.0000      -0.712235       -19.3809
  11   2.0000      -0.612986       -16.6802
  12   2.0000      -0.541990       -14.7483
  13   2.0000      -0.524598       -14.2750
  14   2.0000      -0.401548       -10.9267
  15   2.0000      -0.388682       -10.5766
  16   2.0000      -0.367432        -9.9983
  17   2.0000      -0.326556        -8.8861
  18   2.0000      -0.251901        -6.8546
  19   2.0000      -0.250058        -6.8044
  20   2.0000      -0.212038        -5.7698
  21   0.0000      -0.238721        -6.4959
  22   0.0000      -0.209819        -5.7095
  23   0.0000      -0.207984        -5.6595
  24   0.0000      -0.124076        -3.3763
  25   0.0000      -0.040444        -1.1005

MULLIKEN ATOMIC CHARGES
-----------------------
   0 C :    0.004294
   1 H :    0.018278
   2 C :    0.001098
   3 H :   -0.018016
   4 C :    0.005811
   5 H :    0.151577
   6 C :    0.005966
   7 H :   -0.027308
   8 C :    0.000383
   9 H :    0.027008
  10 C :    0.028962
  11 H :   -0.198052
Sum of atomic charges:   -0.0000000

LOEWDIN ATOMIC CHARGES
----------------------
   0 C :   -0.001093
   1 H :    0.018271
   2 C :   -0.026457
   3 H :   -0.018020
   4 C :    0.042220
   5 H :    0.151537
   6 C :    0.004728
   7 H :   -0.027316
   8 C :   -0.030968
   9 H :    0.027004
  10 C :    0.058178
  11 H :   -0.198085

  Mayer bond orders larger than 0.1
B(  0-C ,  2-C ) :   1.8151 B(  0-C ,  5-H ) :   0.1397 B(  0-C ,  6-C ) :   0.1384
B(  0-C , 10-C ) :   1.5363 B(  0-C , 11-H ) :   0.1886 B(  1-H ,  7-H ) :   0.9549
B(  2-C ,  4-C ) :   1.6853 B(  2-C ,  8-C ) :   0.1786 B(  2-C , 11-H ) :   0.1467
B(  3-H ,  9-H ) :   0.9547 B(  4-C ,  5-H ) :   0.3514 B(  4-C ,  6-C ) :   1.5791
B(  5-H ,  6-C ) :   0.1434 B(  5-H , 10-C ) :   0.2692 B(  6-C ,  8-C ) :   1.8095
B(  6-C , 10-C ) :   0.1243 B(  6-C , 11-H ) :   0.1347 B(  8-C , 10-C ) :   1.6345
B(  8-C , 11-H ) :   0.2012 B( 10-C , 11-H ) :   0.1954

Dispersion correction           -0.000434854
FINAL SINGLE POINT ENERGY      -230.430896146857

DIPOLE MOMENT
-------------
                                X             Y             Z
Electronic contribution:     -1.58610       3.31026       0.00002
Nuclear contribution   :      0.00016      -0.00023       0.00000
                        -----------------------------------------
Total Dipole Moment    :     -1.58594       3.31003       0.00002
                        -----------------------------------------
Magnitude (a.u.)       :      3.67035
Magnitude (Debye)      :      9.32929

                             ****ORCA TERMINATED NORMALLY****
TOTAL RUN TIME: 0 days 0 hours 16 minutes 42 seconds 377 msec
