                         Program Version 4.0.0.2 - RELEASE -
|  1> ! WB97X-D3 6-31G(d) VerySlowConv
|  2> ! KDIIS NOSOSCF
|  3> %base "Scan_5"
|  4>
|  5> %scf
|  6> maxiter 999
|  7> end
|  8>
|  9> * xyz 0 1
| 10> C          1.515846375281   -2.849112911499    0.000000000000
| 11> H          2.503655546373   -2.924735644432    0.000000000000
| 12> C          0.914753807349   -1.595782552030   -0.000000000002
| 13> H          1.474149619056   -0.778126095129   -0.000000000002
| 14> C         -0.471208407353   -1.489678806076    0.000000000002
| 15> H         -0.899621768455   -0.596399596104    0.000000000002
| 16> C         -1.256078054997   -2.636905422385    0.000000000000
| 17> H         -2.243887224658   -2.561282682939    0.000000000000
| 18> C         -0.654985485085   -3.890235783856   -0.000000000002
| 19> H         -1.214381268142   -4.707892259631   -0.000000000002
| 20> C          0.730976730035   -3.996339527252    0.000000000002
| 21> H          1.159390130595   -4.889618718666    0.000000000002
| 22> **                         ****END OF INPUT****

CARTESIAN COORDINATES (ANGSTROEM)
---------------------------------
  C      1.515846   -2.849113    0.000000
  H      2.503656   -2.924736    0.000000
  C      0.914754   -1.595783   -0.000000
  H      1.474150   -0.778126   -0.000000
  C     -0.471208   -1.489679    0.000000
  H     -0.899622   -0.596400    0.000000
  C     -1.256078   -2.636905    0.000000
  H     -2.243887   -2.561283    0.000000
  C     -0.654985   -3.890236   -0.000000
  H     -1.214381   -4.707892   -0.000000
  C      0.730977   -3.996340    0.000000
  H      1.159390   -4.889619    0.000000

 Total Charge           Charge          ....    0
 Multiplicity           Mult            ....    1
 Number of Electrons    NEL             ....   42
 Basis Dimension        Dim             ....   96

ORBITAL ENERGIES
----------------

  NO   OCC          E(Eh)            E(eV)
   0   2.0000     -10.268799      -279.4282
   1   2.0000     -10.268609      -279.4230
   2   2.0000     -10.268566      -279.4219
   3   2.0000     -10.268106      -279.4094
   4   2.0000     -10.268065      -279.4083
   5   2.0000     -10.267873      -279.4030
   6   2.0000      -0.968318       -26.3493
   7   2.0000      -0.863437       -23.4953
   8   2.0000      -0.863375       -23.4936
   9   2.0000      -0.720001       -19.5922
  10   2.0000      -0.719952       -19.5909
  11   2.0000      -0.642438       -17.4816
  12   2.0000      -0.586989       -15.9728
  13   2.0000      -0.535584       -14.5740
  14   2.0000      -0.525104       -14.2888
  15   2.0000      -0.524923       -14.2839
  16   2.0000      -0.462078       -12.5738
  17   2.0000      -0.437895       -11.9157
  18   2.0000      -0.437622       -11.9083
  19   2.0000      -0.329290        -8.9604
  20   2.0000      -0.329130        -8.9561
  21   0.0000       0.085040         2.3140
  22   0.0000       0.085230         2.3192
  23   0.0000       0.215516         5.8645
  24   0.0000       0.265547         7.2259
  25   0.0000       0.266327         7.2471

MULLIKEN ATOMIC CHARGES
-----------------------
   0 C :   -0.161670
   1 H :    0.160611
   2 C :   -0.157611
   3 H :    0.159055
   4 C :   -0.158294
   5 H :    0.157909
   6 C :   -0.161670
   7 H :    0.160611
   8 C :   -0.157611
   9 H :    0.159055
  10 C :   -0.158294
  11 H :    0.157909
Sum of atomic charges:   -0.0000000

LOEWDIN ATOMIC CHARGES
----------------------
   0 C :   -0.139953
   1 H :    0.139782
   2 C :   -0.139357
   3 H :    0.139527
   4 C :   -0.139490
   5 H :    0.139491
   6 C :   -0.139953
   7 H :    0.139782
   8 C :   -0.139357
   9 H :    0.139527
  10 C :   -0.139490
  11 H :    0.139491

  Mayer bond orders larger than 0.1
B(  0-C ,  1-H ) :   0.9356 B(  0-C ,  2-C ) :   1.4637 B(  0-C , 10-C ) :   1.4650
B(  2-C ,  3-H ) :   0.9360 B(  2-C ,  4-C ) :   1.4649 B(  4-C ,  5-H ) :   0.9364
B(  4-C ,  6-C ) :   1.4650 B(  6-C ,  7-H ) :   0.9356 B(  6-C ,  8-C ) :   1.4637
B(  8-C ,  9-H ) :   0.9360 B(  8-C , 10-C ) :   1.4649 B( 10-C , 11-H ) :   0.9364

Dispersion correction           -0.002171457
FINAL SINGLE POINT ENERGY      -232.129043582158

DIPOLE MOMENT
-------------
                                X             Y             Z
Electronic contribution:     -0.00000      -0.00000       0.00000
Nuclear contribution   :      0.00000       0.00000       0.00000
                        -----------------------------------------
Total Dipole Moment    :      0.00000       0.00000       0.00000
                        -----------------------------------------
Magnitude (a.u.)       :      0.00000
Magnitude (Debye)      :      0.00000

                             ****ORCA TERMINATED NORMALLY****
TOTAL RUN TIME: 0 days 0 hours 0 minutes 52 seconds 226 msec
