                         Program Version 4.0.0.2 - RELEASE -
|  1> ! WB97X-D3 6-31G(d) VerySlowConv
|  2> ! KDIIS NOSOSCF
|  3> %base "Scan_6"
|  4>
|  5> %scf
|  6> maxiter 999
|  7> end
|  8>
|  9> * xyz 0 1
| 10> C          1.512912229373   -2.848888284690   -0.000000000003
| 11> H          2.551164266119   -2.928372724014   -0.000000000004
| 12> C          0.913092204268   -1.598211287108    0.000000000019
| 13> H          1.501053768522   -0.738800869202    0.000000000032
| 14> C         -0.469935861311   -1.492332169083   -0.000000000017
| 15> H         -0.920226332107   -0.553437308487   -0.000000000026
| 16> C         -1.253143898157   -2.637130048869   -0.000000000004
| 17> H         -2.291395934736   -2.557645608303   -0.000000000005
| 18> C         -0.653323873336   -3.887807046218    0.000000000019
| 19> H         -1.241285431799   -4.747217468029    0.000000000032
| 20> C          0.729704192060   -3.993686164665   -0.000000000017
| 21> H          1.179994671104   -4.932581021333   -0.000000000026
| 22> **                         ****END OF INPUT****

CARTESIAN COORDINATES (ANGSTROEM)
---------------------------------
  C      1.512912   -2.848888   -0.000000
  H      2.551164   -2.928373   -0.000000
  C      0.913092   -1.598211    0.000000
  H      1.501054   -0.738801    0.000000
  C     -0.469936   -1.492332   -0.000000
  H     -0.920226   -0.553437   -0.000000
  C     -1.253144   -2.637130   -0.000000
  H     -2.291396   -2.557646   -0.000000
  C     -0.653324   -3.887807    0.000000
  H     -1.241285   -4.747217    0.000000
  C      0.729704   -3.993686   -0.000000
  H      1.179995   -4.932581   -0.000000

 Total Charge           Charge          ....    0
 Multiplicity           Mult            ....    1
 Number of Electrons    NEL             ....   42
 Basis Dimension        Dim             ....   96

ORBITAL ENERGIES
----------------

  NO   OCC          E(Eh)            E(eV)
   0   2.0000     -10.275391      -279.6076
   1   2.0000     -10.275219      -279.6029
   2   2.0000     -10.275123      -279.6003
   3   2.0000     -10.274704      -279.5889
   4   2.0000     -10.274602      -279.5861
   5   2.0000     -10.274432      -279.5815
   6   2.0000      -0.969752       -26.3883
   7   2.0000      -0.860380       -23.4121
   8   2.0000      -0.860320       -23.4105
   9   2.0000      -0.712612       -19.3911
  10   2.0000      -0.712561       -19.3898
  11   2.0000      -0.633873       -17.2486
  12   2.0000      -0.570817       -15.5327
  13   2.0000      -0.537934       -14.6379
  14   2.0000      -0.519594       -14.1389
  15   2.0000      -0.519422       -14.1342
  16   2.0000      -0.464674       -12.6444
  17   2.0000      -0.433865       -11.8061
  18   2.0000      -0.433629       -11.7996
  19   2.0000      -0.331043        -9.0081
  20   2.0000      -0.330863        -9.0033
  21   0.0000       0.085069         2.3149
  22   0.0000       0.085242         2.3195
  23   0.0000       0.197534         5.3752
  24   0.0000       0.252939         6.8828
  25   0.0000       0.253513         6.8984

MULLIKEN ATOMIC CHARGES
-----------------------
   0 C :   -0.166807
   1 H :    0.165668
   2 C :   -0.163267
   3 H :    0.164452
   4 C :   -0.163286
   5 H :    0.163240
   6 C :   -0.166807
   7 H :    0.165668
   8 C :   -0.163267
   9 H :    0.164452
  10 C :   -0.163286
  11 H :    0.163240
Sum of atomic charges:    0.0000000

LOEWDIN ATOMIC CHARGES
----------------------
   0 C :   -0.139484
   1 H :    0.139270
   2 C :   -0.139098
   3 H :    0.139215
   4 C :   -0.139141
   5 H :    0.139237
   6 C :   -0.139484
   7 H :    0.139270
   8 C :   -0.139098
   9 H :    0.139215
  10 C :   -0.139141
  11 H :    0.139237

  Mayer bond orders larger than 0.1
B(  0-C ,  1-H ) :   0.9334 B(  0-C ,  2-C ) :   1.4614 B(  0-C , 10-C ) :   1.4626
B(  2-C ,  3-H ) :   0.9338 B(  2-C ,  4-C ) :   1.4619 B(  4-C ,  5-H ) :   0.9343
B(  4-C ,  6-C ) :   1.4626 B(  6-C ,  7-H ) :   0.9334 B(  6-C ,  8-C ) :   1.4614
B(  8-C ,  9-H ) :   0.9338 B(  8-C , 10-C ) :   1.4619 B( 10-C , 11-H ) :   0.9343

Dispersion correction           -0.002161142
FINAL SINGLE POINT ENERGY      -232.163896684873

DIPOLE MOMENT
-------------
                                X             Y             Z
Electronic contribution:     -0.00000       0.00000       0.00000
Nuclear contribution   :      0.00000       0.00000       0.00000
                        -----------------------------------------
Total Dipole Moment    :      0.00000       0.00000       0.00000
                        -----------------------------------------
Magnitude (a.u.)       :      0.00000
Magnitude (Debye)      :      0.00000

                             ****ORCA TERMINATED NORMALLY****
TOTAL RUN TIME: 0 days 0 hours 0 minutes 52 seconds 252 msec
