                         Program Version 4.0.0.2 - RELEASE -
|  1> ! WB97X-D3 6-31G(d) VerySlowConv
|  2> ! KDIIS NOSOSCF
|  3> %base "Scan_7"
|  4>
|  5> %scf
|  6> maxiter 999
|  7> end
|  8>
|  9> * xyz 0 1
| 10> C          1.509890326241   -2.848656939657   -0.000000000069
| 11> H          2.607503645476   -2.932685841971    0.000000000041
| 12> C          0.911380902261   -1.600712661198    0.000000000175
| 13> H          1.532958725992   -0.692166094264   -0.000000000010
| 14> C         -0.468625257697   -1.495064888129   -0.000000000208
| 15> H         -0.944660753002   -0.502489418946    0.000000000068
| 16> C         -1.250121993237   -2.637361393592   -0.000000000065
| 17> H         -2.347735312341   -2.553332491346    0.000000000040
| 18> C         -0.651612568841   -3.885305672456    0.000000000191
| 19> H         -1.273190392620   -4.793852239252   -0.000000000020
| 20> C          0.728393591244   -3.990953444970   -0.000000000222
| 21> H          1.204429086525   -4.983528914218    0.000000000078
| 22> **                         ****END OF INPUT****

CARTESIAN COORDINATES (ANGSTROEM)
---------------------------------
  C      1.509890   -2.848657   -0.000000
  H      2.607504   -2.932686    0.000000
  C      0.911381   -1.600713    0.000000
  H      1.532959   -0.692166   -0.000000
  C     -0.468625   -1.495065   -0.000000
  H     -0.944661   -0.502489    0.000000
  C     -1.250122   -2.637361   -0.000000
  H     -2.347735   -2.553332    0.000000
  C     -0.651613   -3.885306    0.000000
  H     -1.273190   -4.793852   -0.000000
  C      0.728394   -3.990953   -0.000000
  H      1.204429   -4.983529    0.000000

 Total Charge           Charge          ....    0
 Multiplicity           Mult            ....    1
 Number of Electrons    NEL             ....   42
 Basis Dimension        Dim             ....   96

ORBITAL ENERGIES
----------------

  NO   OCC          E(Eh)            E(eV)
   0   2.0000     -10.283528      -279.8290
   1   2.0000     -10.283353      -279.8243
   2   2.0000     -10.283250      -279.8215
   3   2.0000     -10.282818      -279.8097
   4   2.0000     -10.282728      -279.8073
   5   2.0000     -10.282548      -279.8023
   6   2.0000      -0.972148       -26.4535
   7   2.0000      -0.857941       -23.3458
   8   2.0000      -0.857878       -23.3440
   9   2.0000      -0.705432       -19.1958
  10   2.0000      -0.705352       -19.1936
  11   2.0000      -0.624006       -16.9801
  12   2.0000      -0.552889       -15.0449
  13   2.0000      -0.541018       -14.7218
  14   2.0000      -0.513077       -13.9615
  15   2.0000      -0.512891       -13.9565
  16   2.0000      -0.467951       -12.7336
  17   2.0000      -0.429064       -11.6754
  18   2.0000      -0.428857       -11.6698
  19   2.0000      -0.333400        -9.0723
  20   2.0000      -0.333234        -9.0678
  21   0.0000       0.084683         2.3043
  22   0.0000       0.084837         2.3085
  23   0.0000       0.175281         4.7696
  24   0.0000       0.235158         6.3990
  25   0.0000       0.235630         6.4118

MULLIKEN ATOMIC CHARGES
-----------------------
   0 C :   -0.167572
   1 H :    0.166515
   2 C :   -0.164974
   3 H :    0.165671
   4 C :   -0.164021
   5 H :    0.164381
   6 C :   -0.167572
   7 H :    0.166515
   8 C :   -0.164974
   9 H :    0.165671
  10 C :   -0.164021
  11 H :    0.164381
Sum of atomic charges:    0.0000000

LOEWDIN ATOMIC CHARGES
----------------------
   0 C :   -0.137549
   1 H :    0.137370
   2 C :   -0.137492
   3 H :    0.137447
   4 C :   -0.137149
   5 H :    0.137373
   6 C :   -0.137549
   7 H :    0.137370
   8 C :   -0.137492
   9 H :    0.137447
  10 C :   -0.137149
  11 H :    0.137373

  Mayer bond orders larger than 0.1
B(  0-C ,  1-H ) :   0.9321 B(  0-C ,  2-C ) :   1.4591 B(  0-C , 10-C ) :   1.4601
B(  2-C ,  3-H ) :   0.9324 B(  2-C ,  4-C ) :   1.4588 B(  4-C ,  5-H ) :   0.9329
B(  4-C ,  6-C ) :   1.4601 B(  6-C ,  7-H ) :   0.9321 B(  6-C ,  8-C ) :   1.4591
B(  8-C ,  9-H ) :   0.9324 B(  8-C , 10-C ) :   1.4588 B( 10-C , 11-H ) :   0.9329

Dispersion correction           -0.002152567
FINAL SINGLE POINT ENERGY      -232.171851400402

DIPOLE MOMENT
-------------
                                X             Y             Z
Electronic contribution:     -0.00000      -0.00000      -0.00000
Nuclear contribution   :      0.00000       0.00000       0.00000
                        -----------------------------------------
Total Dipole Moment    :     -0.00000      -0.00000       0.00000
                        -----------------------------------------
Magnitude (a.u.)       :      0.00000
Magnitude (Debye)      :      0.00000

                             ****ORCA TERMINATED NORMALLY****
TOTAL RUN TIME: 0 days 0 hours 1 minutes 18 seconds 312 msec
