                         Program Version 4.0.0.2 - RELEASE -
|  1> ! WB97X-D3 6-31G(d) VerySlowConv
|  2> ! KDIIS NOSOSCF
|  3> %base "Scan_8"
|  4>
|  5> %scf
|  6> maxiter 999
|  7> end
|  8>
|  9> * xyz 0 1
| 10> C          1.506773562379   -2.848418332642   -0.000000000231
| 11> H          2.673682545302   -2.937752235138   -0.000000000130
| 12> C          0.909615879999   -1.603292555616    0.000000006384
| 13> H          1.570435799912   -0.637386682769   -0.000000004812
| 14> C         -0.467273515331   -1.497883389112   -0.000000003931
| 15> H         -0.973362578047   -0.442643614753    0.000000002610
| 16> C         -1.247005229030   -2.637600000632   -0.000000000063
| 17> H         -2.413914211842   -2.548266098294   -0.000000000082
| 18> C         -0.649847546427   -3.882725777873    0.000000006924
| 19> H         -1.310667466861   -4.848631650268   -0.000000005255
| 20> C          0.727041848976   -3.988134944076   -0.000000004459
| 21> H          1.233130910971   -5.043374718829    0.000000003046
| 22> **                         ****END OF INPUT****

CARTESIAN COORDINATES (ANGSTROEM)
---------------------------------
  C      1.506774   -2.848418   -0.000000
  H      2.673683   -2.937752   -0.000000
  C      0.909616   -1.603293    0.000000
  H      1.570436   -0.637387   -0.000000
  C     -0.467274   -1.497883   -0.000000
  H     -0.973363   -0.442644    0.000000
  C     -1.247005   -2.637600   -0.000000
  H     -2.413914   -2.548266   -0.000000
  C     -0.649848   -3.882726    0.000000
  H     -1.310667   -4.848632   -0.000000
  C      0.727042   -3.988135   -0.000000
  H      1.233131   -5.043375    0.000000

 Total Charge           Charge          ....    0
 Multiplicity           Mult            ....    1
 Number of Electrons    NEL             ....   42
 Basis Dimension        Dim             ....   96

ORBITAL ENERGIES
----------------

  NO   OCC          E(Eh)            E(eV)
   0   2.0000     -10.293322      -280.0955
   1   2.0000     -10.293114      -280.0899
   2   2.0000     -10.293069      -280.0886
   3   2.0000     -10.292577      -280.0753
   4   2.0000     -10.292534      -280.0741
   5   2.0000     -10.292326      -280.0684
   6   2.0000      -0.975854       -26.5543
   7   2.0000      -0.856588       -23.3089
   8   2.0000      -0.856531       -23.3074
   9   2.0000      -0.699035       -19.0217
  10   2.0000      -0.698920       -19.0186
  11   2.0000      -0.612921       -16.6784
  12   2.0000      -0.545063       -14.8319
  13   2.0000      -0.533433       -14.5154
  14   2.0000      -0.505454       -13.7541
  15   2.0000      -0.505232       -13.7481
  16   2.0000      -0.472102       -12.8466
  17   2.0000      -0.423373       -11.5206
  18   2.0000      -0.423160       -11.5148
  19   2.0000      -0.336579        -9.1588
  20   2.0000      -0.336412        -9.1542
  21   0.0000       0.083719         2.2781
  22   0.0000       0.083837         2.2813
  23   0.0000       0.148502         4.0410
  24   0.0000       0.212388         5.7794
  25   0.0000       0.212649         5.7865

MULLIKEN ATOMIC CHARGES
-----------------------
   0 C :   -0.163323
   1 H :    0.162538
   2 C :   -0.161822
   3 H :    0.162120
   4 C :   -0.160459
   5 H :    0.160946
   6 C :   -0.163323
   7 H :    0.162538
   8 C :   -0.161822
   9 H :    0.162120
  10 C :   -0.160459
  11 H :    0.160946
Sum of atomic charges:    0.0000000

LOEWDIN ATOMIC CHARGES
----------------------
   0 C :   -0.133639
   1 H :    0.133552
   2 C :   -0.133751
   3 H :    0.133644
   4 C :   -0.133205
   5 H :    0.133398
   6 C :   -0.133639
   7 H :    0.133552
   8 C :   -0.133751
   9 H :    0.133644
  10 C :   -0.133205
  11 H :    0.133398

  Mayer bond orders larger than 0.1
B(  0-C ,  1-H ) :   0.9314 B(  0-C ,  2-C ) :   1.4571 B(  0-C , 10-C ) :   1.4576
B(  2-C ,  3-H ) :   0.9317 B(  2-C ,  4-C ) :   1.4558 B(  4-C ,  5-H ) :   0.9322
B(  4-C ,  6-C ) :   1.4576 B(  6-C ,  7-H ) :   0.9314 B(  6-C ,  8-C ) :   1.4571
B(  8-C ,  9-H ) :   0.9317 B(  8-C , 10-C ) :   1.4558 B( 10-C , 11-H ) :   0.9322

Dispersion correction           -0.002148888
FINAL SINGLE POINT ENERGY      -232.148891655993

DIPOLE MOMENT
-------------
                                X             Y             Z
Electronic contribution:      0.00000      -0.00000       0.00000
Nuclear contribution   :     -0.00000      -0.00000      -0.00000
                        -----------------------------------------
Total Dipole Moment    :      0.00000      -0.00000      -0.00000
                        -----------------------------------------
Magnitude (a.u.)       :      0.00000
Magnitude (Debye)      :      0.00000

                             ****ORCA TERMINATED NORMALLY****
TOTAL RUN TIME: 0 days 0 hours 1 minutes 17 seconds 237 msec
