                         Program Version 4.0.0.2 - RELEASE -
|  1> ! WB97X-D3 6-31G(d) VerySlowConv
|  2> ! KDIIS NOSOSCF
|  3> %base "Scan_9"
|  4>
|  5> %scf
|  6> maxiter 999
|  7> end
|  8>
|  9> * xyz 0 1
| 10> C          1.503307838807   -2.848153012007    0.000000007107
| 11> H          2.749409063780   -2.943549554994   -0.000000044157
| 12> C          0.907653241963   -1.606161297617   -0.000000140998
| 13> H          1.613319687514   -0.574704254902    0.000000191162
| 14> C         -0.465770431497   -1.501017455514    0.000000122397
| 15> H         -1.006205209037   -0.374163864512   -0.000000137659
| 16> C         -1.243539505201   -2.637865321856    0.000000022208
| 17> H         -2.489640730702   -2.542468777815   -0.000000058987
| 18> C         -0.647884910447   -3.879857034233   -0.000000140220
| 19> H         -1.353551352379   -4.911314079896    0.000000197373
| 20> C          0.725538762313   -3.985000879153    0.000000130391
| 21> H          1.265973544886   -5.111854467502   -0.000000148618
| 22> **                         ****END OF INPUT****

CARTESIAN COORDINATES (ANGSTROEM)
---------------------------------
  C      1.503308   -2.848153    0.000000
  H      2.749409   -2.943550   -0.000000
  C      0.907653   -1.606161   -0.000000
  H      1.613320   -0.574704    0.000000
  C     -0.465770   -1.501017    0.000000
  H     -1.006205   -0.374164   -0.000000
  C     -1.243540   -2.637865    0.000000
  H     -2.489641   -2.542469   -0.000000
  C     -0.647885   -3.879857   -0.000000
  H     -1.353551   -4.911314    0.000000
  C      0.725539   -3.985001    0.000000
  H      1.265974   -5.111854   -0.000000

 Total Charge           Charge          ....    0
 Multiplicity           Mult            ....    1
 Number of Electrons    NEL             ....   42
 Basis Dimension        Dim             ....   96

ORBITAL ENERGIES
----------------

  NO   OCC          E(Eh)            E(eV)
   0   2.0000     -10.304301      -280.3943
   1   2.0000     -10.304067      -280.3879
   2   2.0000     -10.304062      -280.3878
   3   2.0000     -10.303518      -280.3730
   4   2.0000     -10.303513      -280.3729
   5   2.0000     -10.303279      -280.3665
   6   2.0000      -0.981110       -26.6974
   7   2.0000      -0.856750       -23.3134
   8   2.0000      -0.856707       -23.3122
   9   2.0000      -0.694069       -18.8866
  10   2.0000      -0.693936       -18.8830
  11   2.0000      -0.600997       -16.3540
  12   2.0000      -0.550131       -14.9698
  13   2.0000      -0.512997       -13.9594
  14   2.0000      -0.496706       -13.5160
  15   2.0000      -0.496463       -13.5095
  16   2.0000      -0.477207       -12.9855
  17   2.0000      -0.416622       -11.3369
  18   2.0000      -0.416395       -11.3307
  19   2.0000      -0.340607        -9.2684
  20   2.0000      -0.340448        -9.2641
  21   0.0000       0.082211         2.2371
  22   0.0000       0.082291         2.2392
  23   0.0000       0.117751         3.2042
  24   0.0000       0.184703         5.0260
  25   0.0000       0.184817         5.0291

MULLIKEN ATOMIC CHARGES
-----------------------
   0 C :   -0.153972
   1 H :    0.153565
   2 C :   -0.153770
   3 H :    0.153711
   4 C :   -0.152557
   5 H :    0.153023
   6 C :   -0.153972
   7 H :    0.153565
   8 C :   -0.153770
   9 H :    0.153711
  10 C :   -0.152557
  11 H :    0.153023
Sum of atomic charges:    0.0000000

LOEWDIN ATOMIC CHARGES
----------------------
   0 C :   -0.127459
   1 H :    0.127441
   2 C :   -0.127790
   3 H :    0.127626
   4 C :   -0.127275
   5 H :    0.127457
   6 C :   -0.127459
   7 H :    0.127441
   8 C :   -0.127790
   9 H :    0.127626
  10 C :   -0.127275
  11 H :    0.127457

  Mayer bond orders larger than 0.1
B(  0-C ,  1-H ) :   0.9309 B(  0-C ,  2-C ) :   1.4554 B(  0-C , 10-C ) :   1.4555
B(  2-C ,  3-H ) :   0.9311 B(  2-C ,  4-C ) :   1.4535 B(  4-C ,  5-H ) :   0.9314
B(  4-C ,  6-C ) :   1.4555 B(  6-C ,  7-H ) :   0.9309 B(  6-C ,  8-C ) :   1.4554
B(  8-C ,  9-H ) :   0.9311 B(  8-C , 10-C ) :   1.4535 B( 10-C , 11-H ) :   0.9314

Dispersion correction           -0.002161461
FINAL SINGLE POINT ENERGY      -232.094206441575

DIPOLE MOMENT
-------------
                                X             Y             Z
Electronic contribution:     -0.00000      -0.00000       0.00000
Nuclear contribution   :      0.00000       0.00000      -0.00000
                        -----------------------------------------
Total Dipole Moment    :      0.00000      -0.00000      -0.00000
                        -----------------------------------------
Magnitude (a.u.)       :      0.00000
Magnitude (Debye)      :      0.00000

                             ****ORCA TERMINATED NORMALLY****
TOTAL RUN TIME: 0 days 0 hours 0 minutes 41 seconds 781 msec
