                         Program Version 4.2.0 -  RELEASE  -
|  1> ! wB97X 6-31G(d)  KDIIS NOSOSCF VerySlowConv Grid4
|  2> %paras
|  3> R= 0.83539,5.33539,46
|  4> end
|  5> * int 0 1
|  6>  N 0 0 0 0 0 0
|  7>  C  1   0  0 1.45800 0 0
|  8>  C  2   1  0 1.52824 109.58118 0
|  9>  O  3   2  1 1.22663 122.58864 197.47404
| 10>  H  1   2  3 1.01643 109.70959  76.14157
| 11>  H  2   1  3 1.09806 107.45435 114.40091
| 12>  C  2   1  3 1.53132 114.73009 235.78829
| 13>  H  7   2  1 1.08787 110.59740 295.93608
| 14>  H  7   2  1 1.08929 110.09427  56.41513
| 15>  H  7   2  1 1.08617 109.56252 175.54809
| 16>  H  1   2  3 1.01368 110.30339 194.04492
| 17>  N  3   2  1 {R} 114.32826  19.03211
| 18>  C  12  3  2 1.45533 124.07816 185.96393
| 19>  C  13 12  3 1.55187 110.92065 285.78181
| 20>  O  14 13 12 1.19811 122.35185 241.27800
| 21>  H  12  3  2 1.01185 116.87755   1.03184
| 22>  H  13 12  3 1.10100 107.78671  42.05027
| 23>  C  13 12  3 1.51908 109.81801 162.76687
| 24>  H  18 13 12 1.08733 110.66838 303.64512
| 25>  H  18 13 12 1.08713 109.82916  64.81798
| 26>  H  18 13 12 1.08585 109.63966 183.23467
| 27>  O  14 13 12 1.31986 114.52856  62.38485
| 28>  H  22 14 13 0.99708 112.68942 354.22167
| 29> *
| 30>
| 31>                          ****END OF INPUT****
 Total Charge           Charge          ....    0
 Multiplicity           Mult            ....    1
 Number of Electrons    NEL             ....   86
 Basis Dimension        Dim             ....  178

ORBITAL ENERGIES
----------------

  NO   OCC          E(Eh)            E(eV)
   0   2.0000     -19.206570      -522.6373
   1   2.0000     -19.181508      -521.9554
   2   2.0000     -19.128205      -520.5049
   3   2.0000     -14.464009      -393.5857
   4   2.0000     -14.436889      -392.8477
   5   2.0000     -10.383217      -282.5417
   6   2.0000     -10.340499      -281.3793
   7   2.0000     -10.326176      -280.9895
   8   2.0000     -10.313388      -280.6416
   9   2.0000     -10.267244      -279.3859
  10   2.0000     -10.260532      -279.2033
  11   2.0000      -1.309825       -35.6421
  12   2.0000      -1.202257       -32.7151
  13   2.0000      -1.124954       -30.6116
  14   2.0000      -1.099504       -29.9190
  15   2.0000      -1.061931       -28.8966
  16   2.0000      -0.959446       -26.1079
  17   2.0000      -0.891302       -24.2536
  18   2.0000      -0.837120       -22.7792
  19   2.0000      -0.784591       -21.3498
  20   2.0000      -0.761815       -20.7300
  21   2.0000      -0.732866       -19.9423
  22   2.0000      -0.709442       -19.3049
  23   2.0000      -0.693694       -18.8764
  24   2.0000      -0.638271       -17.3682
  25   2.0000      -0.612623       -16.6703
  26   2.0000      -0.601210       -16.3597
  27   2.0000      -0.560040       -15.2395
  28   2.0000      -0.544974       -14.8295
  29   2.0000      -0.537992       -14.6395
  30   2.0000      -0.532186       -14.4815
  31   2.0000      -0.523710       -14.2509
  32   2.0000      -0.514769       -14.0076
  33   2.0000      -0.510168       -13.8824
  34   2.0000      -0.486043       -13.2259
  35   2.0000      -0.475785       -12.9468
  36   2.0000      -0.447337       -12.1726
  37   2.0000      -0.428924       -11.6716
  38   2.0000      -0.398578       -10.8458
  39   2.0000      -0.392270       -10.6742
  40   2.0000      -0.363541        -9.8925
  41   2.0000      -0.353177        -9.6104
  42   2.0000      -0.331707        -9.0262
  43   0.0000       0.118784         3.2323
  44   0.0000       0.136569         3.7162
  45   0.0000       0.180001         4.8981
  46   0.0000       0.189095         5.1455
  47   0.0000       0.199240         5.4216

MULLIKEN ATOMIC CHARGES
-----------------------
   0 N :   -0.786130
   1 C :   -0.146462
   2 C :    0.265041
   3 O :   -0.666299
   4 H :    0.328135
   5 H :    0.192239
   6 C :   -0.478795
   7 H :    0.153005
   8 H :    0.150071
   9 H :    0.210113
  10 H :    0.353277
  11 N :   -0.009488
  12 C :   -0.200162
  13 C :    0.557151
  14 O :   -0.415077
  15 H :    0.355703
  16 H :    0.223393
  17 C :   -0.506826
  18 H :    0.154393
  19 H :    0.186799
  20 H :    0.202196
  21 O :   -0.594173
  22 H :    0.471896
Sum of atomic charges:   -0.0000000

LOEWDIN ATOMIC CHARGES
----------------------
   0 N :   -0.462430
   1 C :   -0.091827
   2 C :   -0.156663
   3 O :   -0.398528
   4 H :    0.237297
   5 H :    0.145383
   6 C :   -0.381999
   7 H :    0.125989
   8 H :    0.127374
   9 H :    0.158991
  10 H :    0.253646
  11 N :    0.096734
  12 C :   -0.088551
  13 C :    0.116132
  14 O :   -0.222107
  15 H :    0.288181
  16 H :    0.167256
  17 C :   -0.380924
  18 H :    0.128116
  19 H :    0.145937
  20 H :    0.157492
  21 O :   -0.310875
  22 H :    0.345376

  Mayer bond orders larger than 0.100000
B(  0-N ,  1-C ) :   0.9854 B(  0-N ,  4-H ) :   0.8506 B(  0-N , 10-H ) :   0.8456
B(  0-N , 15-H ) :   0.1420 B(  1-C ,  2-C ) :   0.8449 B(  1-C ,  5-H ) :   0.9253
B(  1-C ,  6-C ) :   1.0108 B(  2-C ,  3-O ) :   1.4588 B(  2-C , 11-N ) :   1.7690
B(  3-O , 22-H ) :   0.1806 B(  6-C ,  7-H ) :   0.9513 B(  6-C ,  8-H ) :   0.9528
B(  6-C ,  9-H ) :   0.9271 B( 11-N , 12-C ) :   0.8885 B( 11-N , 15-H ) :   0.7264
B( 12-C , 13-C ) :   0.9068 B( 12-C , 16-H ) :   0.9097 B( 12-C , 17-C ) :   0.9950
B( 13-C , 14-O ) :   1.9580 B( 13-C , 21-O ) :   1.1873 B( 17-C , 18-H ) :   0.9458
B( 17-C , 19-H ) :   0.9396 B( 17-C , 20-H ) :   0.9404 B( 21-O , 22-H ) :   0.5893

FINAL SINGLE POINT ENERGY      -570.117999497084
FINAL SINGLE POINT ENERGY      -570.530208111211
FINAL SINGLE POINT ENERGY      -570.753181488937
FINAL SINGLE POINT ENERGY      -570.866896989801
FINAL SINGLE POINT ENERGY      -570.917387415099
FINAL SINGLE POINT ENERGY      -570.931639974015
FINAL SINGLE POINT ENERGY      -570.925624552994
FINAL SINGLE POINT ENERGY      -570.908805798371
FINAL SINGLE POINT ENERGY      -570.886834738267
FINAL SINGLE POINT ENERGY      -570.863050679516
FINAL SINGLE POINT ENERGY      -570.620501888398
FINAL SINGLE POINT ENERGY      -570.619129571811
FINAL SINGLE POINT ENERGY      -570.617855882164
FINAL SINGLE POINT ENERGY      -570.616668980556
FINAL SINGLE POINT ENERGY      -570.615556316676
FINAL SINGLE POINT ENERGY      -570.614507846411
FINAL SINGLE POINT ENERGY      -570.613518094861
FINAL SINGLE POINT ENERGY      -570.612576984058
FINAL SINGLE POINT ENERGY      -570.611680558331

CARTESIAN COORDINATES (ANGSTROEM)
---------------------------------
  N      0.000000    0.000000    0.000000
  C      1.458000    0.000000    0.000000
  C      1.970178    1.439858    0.000000
  O      3.120398    1.731930   -0.310335
  H     -0.342794    0.229196   -0.929027
  H      1.787359   -0.432743    0.953935
  C      2.098619   -0.782026   -1.150210
  H      1.854186   -1.839539   -1.076867
  H      1.741194   -0.401500   -2.106244
  H      3.177569   -0.662049   -1.115044
  H     -0.351738   -0.922278    0.230718
  N     -1.623248    5.050995    1.585361
  C     -1.404928    6.489376    1.548208
  C     -0.437516    6.932383    2.677880
  O     -0.766237    7.695873    3.540720
  H     -2.533031    4.701897    1.857879
  H     -0.906075    6.729367    0.596498
  C     -2.735049    7.215141    1.656137
  H     -3.413032    6.892852    0.869527
  H     -3.183567    7.020604    2.627135
  H     -2.574657    8.285679    1.570737
  O      0.775116    6.418098    2.593822
  H      0.858029    5.746180    1.861825

FINAL SINGLE POINT ENERGY      -570.610824128641

DIPOLE MOMENT
-------------
                                X             Y             Z
Electronic contribution:      6.33261       6.83300       5.45565
Nuclear contribution   :     -6.06788     -10.06206      -7.43923
                        -----------------------------------------
Total Dipole Moment    :      0.26474      -3.22906      -1.98358
                        -----------------------------------------
Magnitude (a.u.)       :      3.79888
Magnitude (Debye)      :      9.65598

Rotational constants in cm-1:     0.060501     0.007440     0.006871
Rotational constants in MHz :  1813.772993   223.034760   205.984269

                             ****ORCA TERMINATED NORMALLY****
TOTAL RUN TIME: 0 days 0 hours 53 minutes 35 seconds 981 msec
