                         Program Version 4.2.0 -  RELEASE  -
|  1> ! wB97X 6-31G(d)  KDIIS NOSOSCF VerySlowConv Grid4
|  2> %paras
|  3> R=0.8428,5.3428,46
|  4> end
|  5> * int 0 1
|  6>  C 0 0 0 0 0 0
|  7>  C   1   0  0  1.38187 0 0
|  8>  C   2   1  0  1.38706 120.08012 0
|  9>  C   3   2  1  1.38531 119.77147 359.83419
| 10>  C   4   3  2  1.38410 119.94808 359.60580
| 11>  C   5   4  3  1.38760 120.65337   0.81469
| 12>  C   6   5  4  1.50346 120.68328 180.06271
| 13>  H   7   6  5  1.09184 110.34309 229.28604
| 14>  H   7   6  5  1.09208 109.97587 349.36879
| 15>  C   7   6  5  1.54574 110.68175 109.63384
| 16>  N   10  7  6  1.43704 111.50870 303.17814
| 17>  C   11 10  7  {R} 122.41631 110.30968
| 18>  O   12 11 10  1.2140 123.9228 358.03686
| 19>  C   12 11 10  1.5370 113.5757 177.83027
| 20>  N   14 12 11  1.4468 110.4095 15.67630
| 21>  H   15 14 12  1.0142 110.5216 191.86830
| 22>  H   15 14 12  1.0181 109.0805 74.13921
| 23>  H   14 12 11  1.0973 106.6039 258.13203
| 24>  C   14 12 11  1.5522 108.0882 142.09406
| 25>  C   19 14 12  1.5065 108.2146 300.34855
| 26>  O   20 19 14  1.2083 124.1863 303.44744
| 27>  O   20 19 14  1.3248 112.9092 122.09727
| 28>  H   22 20 19  0.9752 111.0565 188.50182
| 29>  H   19 14 12  1.0913 109.4514 180.72150
| 30>  H   19 14 12  1.0880 109.8833 59.31788
| 31>  H   11 10  7  1.0119 119.29270 283.51616
| 32>  C   10  7  6  1.5215 108.63520 181.98751
| 33>  O   27 10  7  1.2019 124.48097 103.99512
| 34>  O   27 10  7  1.3334 111.18724 285.78694
| 35>  C   29 27 10  1.4233 116.2086 178.18553
| 36>  H   30 29 27  1.0913 110.2205 59.30913
| 37>  H   30 29 27  1.0916 110.2662 299.15613
| 38>  H   30 29 27  1.0865 106.2111 179.21253
| 39>  H   10  7  6  1.09547 109.54165 61.79850
| 40>  H    5  4  3  1.08013 119.52666 180.74532
| 41>  H    4  3  2  1.07941 120.32014 180.29979
| 42>  H    3  2  1  1.08205 120.03120 178.68066
| 43>  H    2  1  3  1.07977 119.89108 179.99305
| 44>  H    1  2  3  1.07963 119.75618 180.24143
| 45> **                         ****END OF INPUT****
 Total Charge           Charge          ....    0
 Multiplicity           Mult            ....    1
 Number of Electrons    NEL             ....  156
 Basis Dimension        Dim             ....  330

ORBITAL ENERGIES
----------------

  NO   OCC          E(Eh)            E(eV)
   0   2.0000     -19.272207      -524.4234
   1   2.0000     -19.235053      -523.4124
   2   2.0000     -19.215813      -522.8888
   3   2.0000     -19.192164      -522.2453
   4   2.0000     -19.080450      -519.2054
   5   2.0000     -14.433592      -392.7580
   6   2.0000     -14.400072      -391.8459
   7   2.0000     -10.407216      -283.1948
   8   2.0000     -10.389443      -282.7111
   9   2.0000     -10.324131      -280.9339
  10   2.0000     -10.312935      -280.6292
  11   2.0000     -10.305673      -280.4316
  12   2.0000     -10.291141      -280.0362
  13   2.0000     -10.285558      -279.8843
  14   2.0000     -10.279267      -279.7131
  15   2.0000     -10.268739      -279.4266
  16   2.0000     -10.267948      -279.4051
  17   2.0000     -10.266971      -279.3785
  18   2.0000     -10.265646      -279.3424
  19   2.0000     -10.264717      -279.3171
  20   2.0000     -10.259390      -279.1722
  21   2.0000      -1.279417       -34.8147
  22   2.0000      -1.250711       -34.0336
  23   2.0000      -1.223167       -33.2841
  24   2.0000      -1.157705       -31.5027
  25   2.0000      -1.129098       -30.7243
  26   2.0000      -1.065133       -28.9838
  27   2.0000      -1.032255       -28.0891
  28   2.0000      -1.002448       -27.2780
  29   2.0000      -0.960532       -26.1374
  30   2.0000      -0.901996       -24.5446
  31   2.0000      -0.887438       -24.1484
  32   2.0000      -0.878718       -23.9111
  33   2.0000      -0.861636       -23.4463
  34   2.0000      -0.824549       -22.4371
  35   2.0000      -0.790595       -21.5132
  36   2.0000      -0.748849       -20.3772
  37   2.0000      -0.732602       -19.9351
  38   2.0000      -0.726628       -19.7726
  39   2.0000      -0.708236       -19.2721
  40   2.0000      -0.698638       -19.0109
  41   2.0000      -0.687397       -18.7050
  42   2.0000      -0.660333       -17.9686
  43   2.0000      -0.638541       -17.3756
  44   2.0000      -0.619305       -16.8521
  45   2.0000      -0.613423       -16.6921
  46   2.0000      -0.607319       -16.5260
  47   2.0000      -0.599711       -16.3190
  48   2.0000      -0.588120       -16.0036
  49   2.0000      -0.581188       -15.8149
  50   2.0000      -0.572137       -15.5686
  51   2.0000      -0.568474       -15.4690
  52   2.0000      -0.567148       -15.4329
  53   2.0000      -0.549193       -14.9443
  54   2.0000      -0.539836       -14.6897
  55   2.0000      -0.535443       -14.5701
  56   2.0000      -0.529633       -14.4121
  57   2.0000      -0.517574       -14.0839
  58   2.0000      -0.511712       -13.9244
  59   2.0000      -0.504524       -13.7288
  60   2.0000      -0.500441       -13.6177
  61   2.0000      -0.488318       -13.2878
  62   2.0000      -0.478665       -13.0251
  63   2.0000      -0.471423       -12.8281
  64   2.0000      -0.467676       -12.7261
  65   2.0000      -0.455029       -12.3820
  66   2.0000      -0.444143       -12.0858
  67   2.0000      -0.440639       -11.9904
  68   2.0000      -0.416761       -11.3406
  69   2.0000      -0.411716       -11.2033
  70   2.0000      -0.402662       -10.9570
  71   2.0000      -0.386132       -10.5072
  72   2.0000      -0.378343       -10.2952
  73   2.0000      -0.358933        -9.7671
  74   2.0000      -0.341746        -9.2994
  75   2.0000      -0.335185        -9.1208
  76   2.0000      -0.313701        -8.5362
  77   2.0000      -0.283289        -7.7087
  78   0.0000       0.068377         1.8606
  79   0.0000       0.081344         2.2135
  80   0.0000       0.104929         2.8553
  81   0.0000       0.118534         3.2255
  82   0.0000       0.171463         4.6658

MULLIKEN ATOMIC CHARGES
-----------------------
   0 C :   -0.147603
   1 C :   -0.121565
   2 C :   -0.291721
   3 C :   -0.127168
   4 C :   -0.189542
   5 C :    0.125021
   6 C :   -0.388455
   7 H :    0.196945
   8 H :    0.171797
   9 C :   -0.201263
  10 N :    0.020338
  11 C :    0.193126
  12 O :   -0.611943
  13 C :   -0.157798
  14 N :   -0.792235
  15 H :    0.339264
  16 H :    0.349101
  17 H :    0.184554
  18 C :   -0.368669
  19 C :    0.556248
  20 O :   -0.466446
  21 O :   -0.565115
  22 H :    0.439330
  23 H :    0.169746
  24 H :    0.217415
  25 H :    0.352948
  26 C :    0.581901
  27 O :   -0.432065
  28 O :   -0.451777
  29 C :   -0.253166
  30 H :    0.188472
  31 H :    0.183313
  32 H :    0.187973
  33 H :    0.269746
  34 H :    0.155898
  35 H :    0.175665
  36 H :    0.173321
  37 H :    0.170458
  38 H :    0.163951
Sum of atomic charges:    0.0000000

LOEWDIN ATOMIC CHARGES
----------------------
   0 C :   -0.112060
   1 C :   -0.120592
   2 C :   -0.186234
   3 C :   -0.120054
   4 C :   -0.135106
   5 C :   -0.023799
   6 C :   -0.222648
   7 H :    0.151983
   8 H :    0.134872
   9 C :   -0.077627
  10 N :    0.092339
  11 C :   -0.178583
  12 O :   -0.399286
  13 C :   -0.084945
  14 N :   -0.468565
  15 H :    0.247074
  16 H :    0.242440
  17 H :    0.142378
  18 C :   -0.270754
  19 C :    0.138650
  20 O :   -0.262588
  21 O :   -0.271114
  22 H :    0.326812
  23 H :    0.140255
  24 H :    0.166483
  25 H :    0.287332
  26 C :    0.134710
  27 O :   -0.226886
  28 O :   -0.145850
  29 C :   -0.216940
  30 H :    0.139118
  31 H :    0.136407
  32 H :    0.140995
  33 H :    0.198332
  34 H :    0.135475
  35 H :    0.144680
  36 H :    0.140683
  37 H :    0.142124
  38 H :    0.140488

  Mayer bond orders larger than 0.100000
B(  0-C ,  1-C ) :   1.4892 B(  0-C ,  5-C ) :   1.4112 B(  0-C , 38-H ) :   0.9279
B(  1-C ,  2-C ) :   1.3988 B(  1-C , 37-H ) :   0.9324 B(  2-C ,  3-C ) :   1.4396
B(  2-C , 36-H ) :   0.9320 B(  3-C ,  4-C ) :   1.4256 B(  3-C , 35-H ) :   0.9296
B(  4-C ,  5-C ) :   1.4648 B(  4-C , 34-H ) :   0.9309 B(  5-C ,  6-C ) :   0.9834
B(  6-C ,  7-H ) :   0.9258 B(  6-C ,  8-H ) :   0.9377 B(  6-C ,  9-C ) :   0.9720
B(  9-C , 10-N ) :   0.9184 B(  9-C , 26-C ) :   0.9343 B(  9-C , 33-H ) :   0.8598
B( 10-N , 11-C ) :   1.6994 B( 10-N , 25-H ) :   0.7191 B( 11-C , 12-O ) :   1.6985
B( 11-C , 13-C ) :   0.8182 B( 13-C , 14-N ) :   1.0101 B( 13-C , 17-H ) :   0.9290
B( 13-C , 18-C ) :   0.9727 B( 14-N , 15-H ) :   0.8526 B( 14-N , 16-H ) :   0.8012
B( 14-N , 25-H ) :   0.1333 B( 18-C , 19-C ) :   0.9667 B( 18-C , 23-H ) :   0.9344
B( 18-C , 24-H ) :   0.9110 B( 19-C , 20-O ) :   1.8183 B( 19-C , 21-O ) :   1.1770
B( 21-O , 22-H ) :   0.6769 B( 26-C , 27-O ) :   1.9201 B( 26-C , 28-O ) :   1.0637
B( 28-O , 29-C ) :   0.8670 B( 29-C , 30-H ) :   0.9379 B( 29-C , 31-H ) :   0.9390
B( 29-C , 32-H ) :   0.9470

FINAL SINGLE POINT ENERGY     -1028.945780987355
FINAL SINGLE POINT ENERGY     -1029.344822918903
FINAL SINGLE POINT ENERGY     -1029.561663179698
FINAL SINGLE POINT ENERGY     -1029.673046288262
FINAL SINGLE POINT ENERGY     -1029.723112515750
FINAL SINGLE POINT ENERGY     -1029.737903055791
FINAL SINGLE POINT ENERGY     -1029.732866807044
FINAL SINGLE POINT ENERGY     -1029.717143873060
FINAL SINGLE POINT ENERGY     -1029.696223803421
FINAL SINGLE POINT ENERGY     -1029.673316850450
FINAL SINGLE POINT ENERGY     -1029.428282104595
FINAL SINGLE POINT ENERGY     -1029.426886404820
FINAL SINGLE POINT ENERGY     -1029.425587674424
FINAL SINGLE POINT ENERGY     -1029.424375882558
FINAL SINGLE POINT ENERGY     -1029.423238664749
FINAL SINGLE POINT ENERGY     -1029.422167364296
FINAL SINGLE POINT ENERGY     -1029.421153325719
FINAL SINGLE POINT ENERGY     -1029.420190252542
FINAL SINGLE POINT ENERGY     -1029.419272727981

CARTESIAN COORDINATES (ANGSTROEM)
---------------------------------
  C      0.000000    0.000000    0.000000
  C      1.381870    0.000000    0.000000
  C      2.077079    1.200258    0.000000
  C      1.381323    2.398171   -0.003480
  C     -0.002719    2.393332   -0.015190
  C     -0.706097    1.197247   -0.006561
  C     -2.209479    1.191188   -0.020686
  H     -2.593746    0.531858    0.760170
  H     -2.588273    2.200770    0.152220
  C     -2.740604    0.685730   -1.381469
  N     -2.235112    1.475325   -2.470552
  C      1.303077   -0.432014   -5.990324
  O      1.781469   -1.546358   -5.933983
  C      1.664808    0.566831   -7.101103
  N      1.248603    1.902804   -6.733435
  H      1.305724    2.525402   -7.532002
  H      1.880780    2.264380   -6.021998
  H      1.102285    0.261765   -7.992489
  C      3.178447    0.416412   -7.410290
  C      3.948078    0.708229   -6.148524
  O      3.859359    1.737495   -5.521842
  O      4.721858   -0.298973   -5.771823
  H      5.102482   -0.137120   -4.888679
  H      3.462573    1.126161   -8.189047
  H      3.391664   -0.601849   -7.728765
  H     -2.630881    2.390294   -2.644159
  C     -4.260820    0.745283   -1.362501
  O     -4.916011    1.582790   -1.922741
  O     -4.771998   -0.230626   -0.611332
  C     -6.189669   -0.250816   -0.486497
  H     -6.653464   -0.351181   -1.469226
  H     -6.541699    0.673097   -0.023841
  H     -6.426964   -1.107269    0.138532
  H     -2.407881   -0.345155   -1.544646
  H     -0.538214    3.331257   -0.030062
  H      1.913367    3.337336   -0.008385
  H      3.158914    1.199459    0.021569
  H      1.919976   -0.936133    0.000114
  H     -0.535831   -0.937267    0.003949

FINAL SINGLE POINT ENERGY     -1029.418396688770

DIPOLE MOMENT
-------------
                                X             Y             Z
Electronic contribution:      7.12234      -2.71095      -5.83437
Nuclear contribution   :     -5.76546       2.24128       4.69384
                        -----------------------------------------
Total Dipole Moment    :      1.35688      -0.46967      -1.14053
                        -----------------------------------------
Magnitude (a.u.)       :      1.83372
Magnitude (Debye)      :      4.66094

Rotational constants in cm-1:     0.012043     0.003620     0.003087
Rotational constants in MHz :   361.035145   108.524613    92.533090

                             ****ORCA TERMINATED NORMALLY****
TOTAL RUN TIME: 0 days 3 hours 29 minutes 6 seconds 910 msec
