                         Program Version 4.2.0 -  RELEASE  -
|  1> ! wB97X 6-31G(d)  KDIIS NOSOSCF VerySlowConv Grid4
|  2> %paras
|  3> R=0.97111,5.47111,46
|  4> end
|  5> * int 0 1
|  6>  C 0 0 0 0 0 0
|  7>  C    1  0  0   1.39291 0 0
|  8>  C    2  1  0   1.38255 120.62811 0
|  9>  C    3  2  1   1.38477 120.20849  359.79201
| 10>  C    4  3  2   1.38477 119.65945    0.09384
| 11>  C    5  4  3   1.38254 120.20864    0.11352
| 12>  C    1  2  3   {R} 120.67050  180.12721
| 13>  C    7  1  2   1.39291 120.65895  138.77643
| 14>  C    8  7  1   1.38255 120.63028  180.14100
| 15>  C    9  8  7   1.38477 120.20638  359.77332
| 16>  C   10  9  8   1.38478 119.66024    0.11073
| 17>  C   11 10  9   1.38256 120.20856    0.11187
| 18>  H    2  1  3   1.08044 119.51834  178.72699
| 19>  H    3  2  1   1.08055 119.79335  179.67899
| 20>  H    4  3  2   1.08010 120.17046  180.09210
| 21>  H    5  4  3   1.08055 119.99816  180.21642
| 22>  H    6  5  4   1.08044 119.84111  181.06684
| 23>  H    8  7  1   1.08045 119.51700  358.83423
| 24>  H    9  8  7   1.08053 119.79426  179.69915
| 25>  H   10  9  8   1.08010 120.17010  180.13148
| 26>  H   11 10  9   1.08054 119.99775  180.21436
| 27>  H   12 11 10   1.08043 119.84090  181.06359
| 28> **                         ****END OF INPUT****
 Total Charge           Charge          ....    0
 Multiplicity           Mult            ....    1
 Number of Electrons    NEL             ....   82
 Basis Dimension        Dim             ....  188

ORBITAL ENERGIES
----------------

  NO   OCC          E(Eh)            E(eV)
   0   2.0000     -10.260784      -279.2101
   1   2.0000     -10.260772      -279.2098
   2   2.0000     -10.260756      -279.2094
   3   2.0000     -10.260745      -279.2091
   4   2.0000     -10.257178      -279.1120
   5   2.0000     -10.257168      -279.1117
   6   2.0000     -10.256158      -279.0843
   7   2.0000     -10.256142      -279.0838
   8   2.0000     -10.256138      -279.0837
   9   2.0000     -10.256133      -279.0836
  10   2.0000     -10.239605      -278.6338
  11   2.0000     -10.222278      -278.1623
  12   2.0000      -1.074412       -29.2362
  13   2.0000      -0.972231       -26.4558
  14   2.0000      -0.941723       -25.6256
  15   2.0000      -0.896178       -24.3862
  16   2.0000      -0.865055       -23.5393
  17   2.0000      -0.827206       -22.5094
  18   2.0000      -0.775957       -21.1149
  19   2.0000      -0.773728       -21.0542
  20   2.0000      -0.702650       -19.1201
  21   2.0000      -0.681286       -18.5387
  22   2.0000      -0.656372       -17.8608
  23   2.0000      -0.605681       -16.4814
  24   2.0000      -0.602708       -16.4005
  25   2.0000      -0.598572       -16.2880
  26   2.0000      -0.582515       -15.8510
  27   2.0000      -0.539880       -14.6909
  28   2.0000      -0.536417       -14.5966
  29   2.0000      -0.532160       -14.4808
  30   2.0000      -0.518521       -14.1097
  31   2.0000      -0.476724       -12.9723
  32   2.0000      -0.465466       -12.6660
  33   2.0000      -0.459104       -12.4928
  34   2.0000      -0.452252       -12.3064
  35   2.0000      -0.451698       -12.2913
  36   2.0000      -0.428233       -11.6528
  37   2.0000      -0.363727        -9.8975
  38   2.0000      -0.342450        -9.3185
  39   2.0000      -0.339317        -9.2333
  40   2.0000      -0.268708        -7.3119
  41   0.0000       0.026764         0.7283
  42   0.0000       0.085990         2.3399
  43   0.0000       0.087332         2.3764
  44   0.0000       0.157832         4.2948
  45   0.0000       0.193021         5.2524

MULLIKEN ATOMIC CHARGES
-----------------------
   0 C :    0.138791
   1 C :   -0.224877
   2 C :   -0.163420
   3 C :   -0.167040
   4 C :   -0.163498
   5 C :   -0.225054
   6 C :    0.138779
   7 C :   -0.224928
   8 C :   -0.163493
   9 C :   -0.166996
  10 C :   -0.163487
  11 C :   -0.224949
  12 H :    0.167210
  13 H :    0.157499
  14 H :    0.155640
  15 H :    0.157512
  16 H :    0.167261
  17 H :    0.167212
  18 H :    0.157503
  19 H :    0.155649
  20 H :    0.157499
  21 H :    0.167187
Sum of atomic charges:    0.0000000

LOEWDIN ATOMIC CHARGES
----------------------
   0 C :   -0.058276
   1 C :   -0.113462
   2 C :   -0.129027
   3 C :   -0.150651
   4 C :   -0.129062
   5 C :   -0.113442
   6 C :   -0.058279
   7 C :   -0.113422
   8 C :   -0.129053
   9 C :   -0.150633
  10 C :   -0.129048
  11 C :   -0.113440
  12 H :    0.142910
  13 H :    0.136365
  14 H :    0.135355
  15 H :    0.136374
  16 H :    0.142898
  17 H :    0.142910
  18 H :    0.136369
  19 H :    0.135360
  20 H :    0.136374
  21 H :    0.142880

  Mayer bond orders larger than 0.100000
B(  0-C ,  1-C ) :   1.2876 B(  0-C ,  5-C ) :   1.2872 B(  0-C ,  6-C ) :   1.4023
B(  1-C ,  2-C ) :   1.4585 B(  1-C , 12-H ) :   0.9209 B(  2-C ,  3-C ) :   1.4416
B(  2-C , 13-H ) :   0.9328 B(  3-C ,  4-C ) :   1.4416 B(  3-C , 14-H ) :   0.9360
B(  4-C ,  5-C ) :   1.4586 B(  4-C , 15-H ) :   0.9328 B(  5-C , 16-H ) :   0.9209
B(  6-C ,  7-C ) :   1.2874 B(  6-C , 11-C ) :   1.2875 B(  7-C ,  8-C ) :   1.4586
B(  7-C , 17-H ) :   0.9209 B(  8-C ,  9-C ) :   1.4416 B(  8-C , 18-H ) :   0.9328
B(  9-C , 10-C ) :   1.4416 B(  9-C , 19-H ) :   0.9360 B( 10-C , 11-C ) :   1.4586
B( 10-C , 20-H ) :   0.9328 B( 11-C , 21-H ) :   0.9209

FINAL SINGLE POINT ENERGY      -462.706510112067
FINAL SINGLE POINT ENERGY      -462.929052562357
FINAL SINGLE POINT ENERGY      -463.056240691717
FINAL SINGLE POINT ENERGY      -463.124760956434
FINAL SINGLE POINT ENERGY      -463.157188516107
FINAL SINGLE POINT ENERGY      -463.167439433516
FINAL SINGLE POINT ENERGY      -463.164162568694
FINAL SINGLE POINT ENERGY      -463.152862712849
FINAL SINGLE POINT ENERGY      -463.137007517005
FINAL SINGLE POINT ENERGY      -463.118790104812
FINAL SINGLE POINT ENERGY      -462.850819156255
FINAL SINGLE POINT ENERGY      -462.847916875454
FINAL SINGLE POINT ENERGY      -462.845293524249
FINAL SINGLE POINT ENERGY      -462.842922855366
FINAL SINGLE POINT ENERGY      -462.840780073270
FINAL SINGLE POINT ENERGY      -462.838838406187
FINAL SINGLE POINT ENERGY      -462.837071037860
FINAL SINGLE POINT ENERGY      -462.835456760635
FINAL SINGLE POINT ENERGY      -462.833977452121

CARTESIAN COORDINATES (ANGSTROEM)
---------------------------------
  C      0.000000    0.000000    0.000000
  C      1.392910    0.000000    0.000000
  C      2.097269    1.189673    0.000000
  C      1.422475    2.398897   -0.004344
  C      0.037759    2.410886   -0.006721
  C     -0.668193    1.222177   -0.002402
  C     -2.790814   -4.705772    0.010448
  C     -3.928285   -4.855229    0.800398
  C     -4.631416   -6.045620    0.804788
  C     -4.213066   -7.104799    0.016936
  C     -3.084938   -6.966674   -0.774180
  C     -2.377991   -5.778527   -0.776279
  H      1.925245   -0.939965    0.020888
  H      3.177692    1.173939    0.005254
  H      1.973367    3.327946   -0.005843
  H     -0.494353    3.351310   -0.013647
  H     -1.748340    1.238298   -0.021737
  H     -4.249763   -4.038626    1.430623
  H     -5.509203   -6.148413    1.426454
  H     -4.764039   -8.033798    0.019207
  H     -2.755620   -7.788458   -1.393685
  H     -1.508621   -5.671335   -1.408762

FINAL SINGLE POINT ENERGY      -462.832618188810

DIPOLE MOMENT
-------------
                                X             Y             Z
Electronic contribution:     -0.00010      -0.00031      -0.00113
Nuclear contribution   :     -0.00005       0.00005       0.00136
                        -----------------------------------------
Total Dipole Moment    :     -0.00015      -0.00026       0.00022
                        -----------------------------------------
Magnitude (a.u.)       :      0.00038
Magnitude (Debye)      :      0.00096

Rotational constants in cm-1:     0.096559     0.005887     0.005630
Rotational constants in MHz :  2894.774619   176.484887   168.771447

                             ****ORCA TERMINATED NORMALLY****
TOTAL RUN TIME: 0 days 0 hours 47 minutes 30 seconds 170 msec
