                         Program Version 4.2.0 -  RELEASE  -
|  1> ! wB97X 6-31G(d)  KDIIS NOSOSCF VerySlowConv Grid4
|  2> %paras
|  3> RH= 1.0805
|  4> RC= 0.8846,5.3846,46
|  5> A=120.0
|  6> end
|  7> * int 0  1
|  8> C 0 0 0 0 0 0
|  9> C 1 0 0 {RC}  0    0
| 10> C 2 1 0 {RC} {A}   0.0
| 11> C 3 2 1 {RC} {A}   0.0
| 12> C 4 3 2 {RC} {A} 360.0
| 13> C 1 2 3 {RC} {A} 360.0
| 14> H 1 2 3 {RH} {A} 180.0
| 15> H 2 1 3 {RH} {A} 180.0
| 16> H 3 2 1 {RH} {A} 180.0
| 17> H 4 3 2 {RH} {A} 180.0
| 18> H 5 4 3 {RH} {A} 180.0
| 19> H 6 1 2 {RH} {A} 180.0
| 20> *
| 21>
| 22>                          ****END OF INPUT****
 Total Charge           Charge          ....    0
 Multiplicity           Mult            ....    1
 Number of Electrons    NEL             ....   42
 Basis Dimension        Dim             ....   96

ORBITAL ENERGIES
----------------

  NO   OCC          E(Eh)            E(eV)
   0   2.0000     -10.222436      -278.1666
   1   2.0000     -10.204214      -277.6708
   2   2.0000     -10.204200      -277.6704
   3   2.0000     -10.166702      -276.6500
   4   2.0000     -10.166689      -276.6497
   5   2.0000     -10.147808      -276.1359
   6   2.0000      -1.390914       -37.8487
   7   2.0000      -0.936604       -25.4863
   8   2.0000      -0.936601       -25.4862
   9   2.0000      -0.829211       -22.5640
  10   2.0000      -0.818621       -22.2758
  11   2.0000      -0.776118       -21.1192
  12   2.0000      -0.776116       -21.1192
  13   2.0000      -0.713468       -19.4144
  14   2.0000      -0.538054       -14.6412
  15   2.0000      -0.538051       -14.6411
  16   2.0000      -0.471869       -12.8402
  17   2.0000      -0.471864       -12.8401
  18   2.0000      -0.403425       -10.9778
  19   2.0000      -0.342654        -9.3241
  20   2.0000      -0.342640        -9.3237
  21   0.0000       0.118293         3.2189
  22   0.0000       0.213080         5.7982
  23   0.0000       0.213091         5.7985
  24   0.0000       0.261387         7.1127
  25   0.0000       0.261394         7.1129

MULLIKEN ATOMIC CHARGES
-----------------------
   0 C :   -0.027577
   1 C :   -0.027804
   2 C :   -0.026833
   3 C :   -0.027710
   4 C :   -0.027558
   5 C :   -0.026993
   6 H :    0.027432
   7 H :    0.027439
   8 H :    0.027378
   9 H :    0.027422
  10 H :    0.027430
  11 H :    0.027374
Sum of atomic charges:    0.0000000

LOEWDIN ATOMIC CHARGES
----------------------
   0 C :   -0.117217
   1 C :   -0.117218
   2 C :   -0.117208
   3 C :   -0.117217
   4 C :   -0.117217
   5 C :   -0.117208
   6 H :    0.117219
   7 H :    0.117219
   8 H :    0.117203
   9 H :    0.117219
  10 H :    0.117219
  11 H :    0.117203

  Mayer bond orders larger than 0.100000
B(  0-C ,  1-C ) :   1.5280 B(  0-C ,  2-C ) :   0.3766 B(  0-C ,  3-C ) :  -0.2387
B(  0-C ,  4-C ) :   0.3768 B(  0-C ,  5-C ) :   1.5274 B(  0-C ,  6-H ) :   0.8749
B(  1-C ,  2-C ) :   1.5273 B(  1-C ,  3-C ) :   0.3769 B(  1-C ,  4-C ) :  -0.2388
B(  1-C ,  5-C ) :   0.3768 B(  1-C ,  7-H ) :   0.8749 B(  2-C ,  3-C ) :   1.5275
B(  2-C ,  4-C ) :   0.3767 B(  2-C ,  5-C ) :  -0.2387 B(  2-C ,  8-H ) :   0.8751
B(  3-C ,  4-C ) :   1.5281 B(  3-C ,  5-C ) :   0.3768 B(  3-C ,  9-H ) :   0.8750
B(  4-C ,  5-C ) :   1.5274 B(  4-C , 10-H ) :   0.8750 B(  5-C , 11-H ) :   0.8751

FINAL SINGLE POINT ENERGY      -227.947305074332
FINAL SINGLE POINT ENERGY      -230.018781524684
FINAL SINGLE POINT ENERGY      -231.187053749840
FINAL SINGLE POINT ENERGY      -231.807147933259
FINAL SINGLE POINT ENERGY      -232.092923799559
FINAL SINGLE POINT ENERGY      -232.174741517308
FINAL SINGLE POINT ENERGY      -232.133597381307
FINAL SINGLE POINT ENERGY      -232.020412804174
FINAL SINGLE POINT ENERGY      -231.867455700392
FINAL SINGLE POINT ENERGY      -231.695336620569
FINAL SINGLE POINT ENERGY      -229.813721790108
FINAL SINGLE POINT ENERGY      -229.802737180928
FINAL SINGLE POINT ENERGY      -229.792726248802
FINAL SINGLE POINT ENERGY      -229.783584674809
FINAL SINGLE POINT ENERGY      -229.775215508489
FINAL SINGLE POINT ENERGY      -229.767535940280
FINAL SINGLE POINT ENERGY      -229.760441288384
FINAL SINGLE POINT ENERGY      -229.753853536389
FINAL SINGLE POINT ENERGY      -229.747715686178

CARTESIAN COORDINATES (ANGSTROEM)
---------------------------------
  C      0.000000    0.000000    0.000000
  C      5.384600    0.000000    0.000000
  C      8.076900    4.663200    0.000000
  C      5.384600    9.326401    0.000000
  C     -0.000000    9.326401   -0.000000
  C     -2.692300    4.663200    0.000000
  H     -0.540250   -0.935740   -0.000000
  H      5.924850   -0.935740    0.000000
  H      9.157400    4.663200    0.000000
  H      5.924850   10.262141    0.000000
  H     -0.540250   10.262141   -0.000000
  H     -3.772800    4.663200    0.000000

FINAL SINGLE POINT ENERGY      -229.741987775377

DIPOLE MOMENT
-------------
                                X             Y             Z
Electronic contribution:     -0.00514      -0.00123       0.00000
Nuclear contribution   :     -0.00000      -0.00000       0.00000
                        -----------------------------------------
Total Dipole Moment    :     -0.00514      -0.00123       0.00000
                        -----------------------------------------
Magnitude (a.u.)       :      0.00529
Magnitude (Debye)      :      0.01344

Rotational constants in cm-1:     0.014394     0.014394     0.007197
Rotational constants in MHz :   431.530201   431.530201   215.765101

                             ****ORCA TERMINATED NORMALLY****
TOTAL RUN TIME: 0 days 0 hours 11 minutes 9 seconds 146 msec
