                         Program Version 4.2.0 -  RELEASE  -
|  1> ! wB97X 6-31G(d)  KDIIS NOSOSCF VerySlowConv Grid4
|  2> %paras
|  3> RH= 0.5805,5.0805,46
|  4> RC=1.3846
|  5> A=120.0
|  6> end
|  7> * int 0  1
|  8> C 0 0 0 0 0 0
|  9> C 1 0 0 {RC}  0    0
| 10> C 2 1 0 {RC} {A}   0.0
| 11> C 3 2 1 {RC} {A}   0.0
| 12> C 4 3 2 {RC} {A} 360.0
| 13> C 1 2 3 {RC} {A} 360.0
| 14> H 1 2 3 {RH} {A} 180.0
| 15> H 2 1 3 {RH} {A} 180.0
| 16> H 3 2 1 {RH} {A} 180.0
| 17> H 4 3 2 {RH} {A} 180.0
| 18> H 5 4 3 {RH} {A} 180.0
| 19> H 6 1 2 {RH} {A} 180.0
| 20> **                         ****END OF INPUT****
 Total Charge           Charge          ....    0
 Multiplicity           Mult            ....    1
 Number of Electrons    NEL             ....   42
 Basis Dimension        Dim             ....   96

ORBITAL ENERGIES
----------------

  NO   OCC          E(Eh)            E(eV)
   0   2.0000     -10.248552      -278.8773
   1   2.0000     -10.248345      -278.8717
   2   2.0000     -10.248344      -278.8716
   3   2.0000     -10.247844      -278.8580
   4   2.0000     -10.247843      -278.8580
   5   2.0000     -10.247623      -278.8520
   6   2.0000      -1.008916       -27.4540
   7   2.0000      -0.935454       -25.4550
   8   2.0000      -0.935448       -25.4548
   9   2.0000      -0.822087       -22.3701
  10   2.0000      -0.822083       -22.3700
  11   2.0000      -0.734857       -19.9965
  12   2.0000      -0.732120       -19.9220
  13   2.0000      -0.587620       -15.9900
  14   2.0000      -0.587616       -15.9898
  15   2.0000      -0.555394       -15.1130
  16   2.0000      -0.485946       -13.2233
  17   2.0000      -0.485940       -13.2231
  18   2.0000      -0.479135       -13.0379
  19   2.0000      -0.342844        -9.3293
  20   2.0000      -0.342843        -9.3292
  21   0.0000       0.083907         2.2832
  22   0.0000       0.083912         2.2834
  23   0.0000       0.267322         7.2742
  24   0.0000       0.302663         8.2359
  25   0.0000       0.309227         8.4145

MULLIKEN ATOMIC CHARGES
-----------------------
   0 C :    0.404649
   1 C :    0.404650
   2 C :    0.404615
   3 C :    0.404650
   4 C :    0.404650
   5 C :    0.404615
   6 H :   -0.404604
   7 H :   -0.404604
   8 H :   -0.404706
   9 H :   -0.404604
  10 H :   -0.404605
  11 H :   -0.404706
Sum of atomic charges:   -0.0000000

LOEWDIN ATOMIC CHARGES
----------------------
   0 C :   -0.083104
   1 C :   -0.083104
   2 C :   -0.083138
   3 C :   -0.083104
   4 C :   -0.083104
   5 C :   -0.083138
   6 H :    0.083118
   7 H :    0.083118
   8 H :    0.083111
   9 H :    0.083118
  10 H :    0.083118
  11 H :    0.083111

  Mayer bond orders larger than 0.100000
B(  0-C ,  1-C ) :   1.5434 B(  0-C ,  3-C ) :   0.1067 B(  0-C ,  5-C ) :   1.5434
B(  0-C ,  6-H ) :   0.7776 B(  1-C ,  2-C ) :   1.5434 B(  1-C ,  4-C ) :   0.1067
B(  1-C ,  7-H ) :   0.7776 B(  2-C ,  3-C ) :   1.5434 B(  2-C ,  5-C ) :   0.1067
B(  2-C ,  8-H ) :   0.7775 B(  3-C ,  4-C ) :   1.5434 B(  3-C ,  9-H ) :   0.7776
B(  4-C ,  5-C ) :   1.5434 B(  4-C , 10-H ) :   0.7776 B(  5-C , 11-H ) :   0.7775

FINAL SINGLE POINT ENERGY      -228.877882333797
FINAL SINGLE POINT ENERGY      -230.561634347506
FINAL SINGLE POINT ENERGY      -231.460286421460
FINAL SINGLE POINT ENERGY      -231.916574614852
FINAL SINGLE POINT ENERGY      -232.119027064101
FINAL SINGLE POINT ENERGY      -232.174741528993
FINAL SINGLE POINT ENERGY      -232.146180349542
FINAL SINGLE POINT ENERGY      -232.070344061905
FINAL SINGLE POINT ENERGY      -231.969336679875
FINAL SINGLE POINT ENERGY      -231.856650777064
FINAL SINGLE POINT ENERGY      -230.546574419076
FINAL SINGLE POINT ENERGY      -230.543335066690
FINAL SINGLE POINT ENERGY      -230.540423403012
FINAL SINGLE POINT ENERGY      -230.537776191692
FINAL SINGLE POINT ENERGY      -230.535350550145
FINAL SINGLE POINT ENERGY      -230.533095574200
FINAL SINGLE POINT ENERGY      -230.530969616061
FINAL SINGLE POINT ENERGY      -230.528945730413
FINAL SINGLE POINT ENERGY      -230.526998882455

CARTESIAN COORDINATES (ANGSTROEM)
---------------------------------
  C      0.000000    0.000000    0.000000
  C      1.384600    0.000000    0.000000
  C      2.076900    1.199099    0.000000
  C      1.384600    2.398198    0.000000
  C     -0.000000    2.398198   -0.000000
  C     -0.692300    1.199099    0.000000
  H     -2.540250   -4.399842   -0.000000
  H      3.924850   -4.399842    0.000000
  H      7.157400    1.199099    0.000000
  H      3.924850    6.798040    0.000000
  H     -2.540250    6.798040    0.000000
  H     -5.772800    1.199099   -0.000000

FINAL SINGLE POINT ENERGY      -230.525137820373

DIPOLE MOMENT
-------------
                                X             Y             Z
Electronic contribution:      0.00001      -0.00001       0.00000
Nuclear contribution   :     -0.00000      -0.00000       0.00000
                        -----------------------------------------
Total Dipole Moment    :      0.00001      -0.00001       0.00000
                        -----------------------------------------
Magnitude (a.u.)       :      0.00001
Magnitude (Debye)      :      0.00004

Rotational constants in cm-1:     0.086239     0.086239     0.043120
Rotational constants in MHz :  2585.389548  2585.389548  1292.694774

                             ****ORCA TERMINATED NORMALLY****
TOTAL RUN TIME: 0 days 0 hours 13 minutes 10 seconds 182 msec
