                         Program Version 4.2.0 -  RELEASE  -
|  1> ! wB97X 6-31G(d) KDIIS NOSOSCF VerySlowConv Grid4
|  2> %paras
|  3> R= 0.9062,5.4062,46
|  4> end
|  5> * int 0  1
|  6> C 0 0 0 0 0 0
|  7> O 1 0 0 {R} 0 0
|  8> H 1 2 0 1.0955 111.71 0
|  9> H 1 2 3 1.0955 111.71 237.63
| 10> H 1 2 3 1.0884 106.53 118.82
| 11> H 2 1 3 0.9629 109.10  61.18
| 12> *
| 13>
| 14>                          ****END OF INPUT****
 Total Charge           Charge          ....    0
 Multiplicity           Mult            ....    1
 Number of Electrons    NEL             ....   18
 Basis Dimension        Dim             ....   36

ORBITAL ENERGIES
----------------

  NO   OCC          E(Eh)            E(eV)
   0   2.0000     -19.233160      -523.3609
   1   2.0000     -10.295470      -280.1540
   2   2.0000      -1.425883       -38.8003
   3   2.0000      -0.855023       -23.2664
   4   2.0000      -0.720092       -19.5947
   5   2.0000      -0.713111       -19.4047
   6   2.0000      -0.650182       -17.6923
   7   2.0000      -0.359082        -9.7711
   8   2.0000      -0.307376        -8.3641
   9   0.0000       0.140016         3.8100
  10   0.0000       0.242791         6.6067
  11   0.0000       0.305728         8.3193
  12   0.0000       0.317864         8.6495
  13   0.0000       0.383977        10.4485

MULLIKEN ATOMIC CHARGES
-----------------------
   0 C :   -0.312957
   1 O :   -0.122625
   2 H :   -0.020568
   3 H :   -0.020569
   4 H :    0.064181
   5 H :    0.412538
Sum of atomic charges:   -0.0000000

LOEWDIN ATOMIC CHARGES
----------------------
   0 C :   -0.378138
   1 O :   -0.034186
   2 H :   -0.000299
   3 H :   -0.000294
   4 H :    0.075744
   5 H :    0.337174

  Mayer bond orders larger than 0.100000
B(  0-C ,  1-O ) :   1.4341 B(  0-C ,  2-H ) :   0.9300 B(  0-C ,  3-H ) :   0.9300
B(  0-C ,  4-H ) :   0.9010 B(  1-O ,  5-H ) :   0.7537

FINAL SINGLE POINT ENERGY      -115.119797617456
FINAL SINGLE POINT ENERGY      -115.401075929394
FINAL SINGLE POINT ENERGY      -115.554580458401
FINAL SINGLE POINT ENERGY      -115.633552842193
FINAL SINGLE POINT ENERGY      -115.668785137192
FINAL SINGLE POINT ENERGY      -115.678460163382
FINAL SINGLE POINT ENERGY      -115.673411314143
FINAL SINGLE POINT ENERGY      -115.660213772861
FINAL SINGLE POINT ENERGY      -115.642841664488
FINAL SINGLE POINT ENERGY      -115.623684669634
FINAL SINGLE POINT ENERGY      -115.371140328960
FINAL SINGLE POINT ENERGY      -115.368931129050
FINAL SINGLE POINT ENERGY      -115.366918760269
FINAL SINGLE POINT ENERGY      -115.365078489117
FINAL SINGLE POINT ENERGY      -115.363386186578
FINAL SINGLE POINT ENERGY      -115.361824931076
FINAL SINGLE POINT ENERGY      -115.360378654734
FINAL SINGLE POINT ENERGY      -115.359031685897
FINAL SINGLE POINT ENERGY      -115.357771626407

CARTESIAN COORDINATES (ANGSTROEM)
---------------------------------
  C      0.000000    0.000000    0.000000
  O      5.406200    0.000000    0.000000
  H     -0.405235    1.017794    0.000000
  H     -0.405235   -0.544911    0.859637
  H     -0.309669   -0.502989   -0.914178
  H      5.721278    0.438622    0.797191

FINAL SINGLE POINT ENERGY      -115.356587370542

DIPOLE MOMENT
-------------
                                X             Y             Z
Electronic contribution:      3.97743      -0.05038      -0.09175
Nuclear contribution   :     -6.31863       0.33484       0.60872
                        -----------------------------------------
Total Dipole Moment    :     -2.34120       0.28446       0.51697
                        -----------------------------------------
Magnitude (a.u.)       :      2.41441
Magnitude (Debye)      :      6.13695

Rotational constants in cm-1:     4.250377     0.069239     0.069024
Rotational constants in MHz : 127423.099661  2075.743730  2069.287072

                             ****ORCA TERMINATED NORMALLY****
TOTAL RUN TIME: 0 days 0 hours 2 minutes 29 seconds 424 msec
