                         Program Version 4.2.0 -  RELEASE  -
|  1> ! wB97X 6-31G(d) KDIIS NOSOSCF VerySlowConv Grid4
|  2> %paras
|  3> R= 0.5822,5.0822,46
|  4> A= 109.47
|  5> end
|  6> * int 0  1
|  7> C 0 0 0 0 0 0
|  8> H  1 0 0 {R} 0 0
|  9> H  1 2 0 {R} {A}    0
| 10> H  1 2 3 {R} {A}  240.00
| 11> H  1 2 3 {R} {A}  120.00
| 12> **                         ****END OF INPUT****
 Total Charge           Charge          ....    0
 Multiplicity           Mult            ....    1
 Number of Electrons    NEL             ....   10
 Basis Dimension        Dim             ....   22

ORBITAL ENERGIES
----------------

  NO   OCC          E(Eh)            E(eV)
   0   2.0000     -10.184914      -277.1456
   1   2.0000      -0.991410       -26.9776
   2   2.0000      -0.614511       -16.7217
   3   2.0000      -0.614511       -16.7217
   4   2.0000      -0.614507       -16.7216
   5   0.0000       0.280958         7.6453
   6   0.0000       0.423401        11.5213
   7   0.0000       0.423410        11.5216
   8   0.0000       0.423410        11.5216
   9   0.0000       0.566770        15.4226

MULLIKEN ATOMIC CHARGES
-----------------------
   0 C :   -0.068837
   1 H :    0.017210
   2 H :    0.017208
   3 H :    0.017210
   4 H :    0.017210
Sum of atomic charges:    0.0000000

LOEWDIN ATOMIC CHARGES
----------------------
   0 C :   -0.709880
   1 H :    0.177476
   2 H :    0.177467
   3 H :    0.177469
   4 H :    0.177469

  Mayer bond orders larger than 0.100000
B(  0-C ,  1-H ) :   0.7323 B(  0-C ,  2-H ) :   0.7324 B(  0-C ,  3-H ) :   0.7323
B(  0-C ,  4-H ) :   0.7323

FINAL SINGLE POINT ENERGY       -38.391500277316
FINAL SINGLE POINT ENERGY       -39.460400643377
FINAL SINGLE POINT ENERGY       -40.032333514601
FINAL SINGLE POINT ENERGY       -40.326547615993
FINAL SINGLE POINT ENERGY       -40.460029737047
FINAL SINGLE POINT ENERGY       -40.498628798474
FINAL SINGLE POINT ENERGY       -40.481241156570
FINAL SINGLE POINT ENERGY       -40.431585907829
FINAL SINGLE POINT ENERGY       -40.364411380509
FINAL SINGLE POINT ENERGY       -40.289135209294
FINAL SINGLE POINT ENERGY       -39.357360412259
FINAL SINGLE POINT ENERGY       -39.348853711533
FINAL SINGLE POINT ENERGY       -39.341121517451
FINAL SINGLE POINT ENERGY       -39.334081056512
FINAL SINGLE POINT ENERGY       -39.327659053870
FINAL SINGLE POINT ENERGY       -39.321795235910
FINAL SINGLE POINT ENERGY       -39.316425524072
FINAL SINGLE POINT ENERGY       -39.311485736370
FINAL SINGLE POINT ENERGY       -39.306923528864

CARTESIAN COORDINATES (ANGSTROEM)
---------------------------------
  C      0.000000    0.000000    0.000000
  H      5.082200    0.000000    0.000000
  H     -1.693965    4.791580    0.000000
  H     -1.693965   -2.395790    4.149630
  H     -1.693965   -2.395790   -4.149630

FINAL SINGLE POINT ENERGY       -39.302700441646

DIPOLE MOMENT
-------------
                                X             Y             Z
Electronic contribution:     -0.00012       0.00007      -0.00000
Nuclear contribution   :      0.00022      -0.00000      -0.00000
                        -----------------------------------------
Total Dipole Moment    :      0.00009       0.00007      -0.00000
                        -----------------------------------------
Magnitude (a.u.)       :      0.00012
Magnitude (Debye)      :      0.00030

Rotational constants in cm-1:     0.242810     0.242810     0.242805
Rotational constants in MHz :  7279.274670  7279.274670  7279.110191

                             ****ORCA TERMINATED NORMALLY****
TOTAL RUN TIME: 0 days 0 hours 1 minutes 46 seconds 57 msec
