                         Program Version 4.2.0 -  RELEASE  -
|  1> ! wB97X 6-31G(d)  KDIIS NOSOSCF VerySlowConv Grid4
|  2> %paras
|  3> R= 0.6271,5.1271,46
|  4> end
|  5> * xyz 0  1
|  6> C 0 0 0
|  7> O 0 0 {R}
|  8> *
|  9>
| 10>                          ****END OF INPUT****
 Total Charge           Charge          ....    0
 Multiplicity           Mult            ....    1
 Number of Electrons    NEL             ....   14
 Basis Dimension        Dim             ....   28

ORBITAL ENERGIES
----------------

  NO   OCC          E(Eh)            E(eV)
   0   2.0000     -19.407217      -528.0972
   1   2.0000     -10.439877      -284.0835
   2   2.0000      -1.380492       -37.5651
   3   2.0000      -0.877734       -23.8843
   4   2.0000      -0.877734       -23.8843
   5   2.0000      -0.622559       -16.9407
   6   2.0000      -0.403139       -10.9700
   7   0.0000       0.325594         8.8599
   8   0.0000       0.325594         8.8599
   9   0.0000       0.397897        10.8273
  10   0.0000       0.614950        16.7336
  11   0.0000       0.647746        17.6261

MULLIKEN ATOMIC CHARGES
-----------------------
   0 C :   -0.615396
   1 O :    0.615396
Sum of atomic charges:    0.0000000

LOEWDIN ATOMIC CHARGES
----------------------
   0 C :   -0.393650
   1 O :    0.393650

  Mayer bond orders larger than 0.100000
B(  0-C ,  1-O ) :   2.7732

FINAL SINGLE POINT ENERGY      -110.818579184277
FINAL SINGLE POINT ENERGY      -112.123465306025
FINAL SINGLE POINT ENERGY      -112.789213942000
FINAL SINGLE POINT ENERGY      -113.109365109428
FINAL SINGLE POINT ENERGY      -113.243928990795
FINAL SINGLE POINT ENERGY      -113.279532006539
FINAL SINGLE POINT ENERGY      -113.263578170390
FINAL SINGLE POINT ENERGY      -113.222311770431
FINAL SINGLE POINT ENERGY      -113.170220787620
FINAL SINGLE POINT ENERGY      -113.115086345478
FINAL SINGLE POINT ENERGY      -112.703912416154
FINAL SINGLE POINT ENERGY      -112.703603176676
FINAL SINGLE POINT ENERGY      -112.703372381811
FINAL SINGLE POINT ENERGY      -112.703204179812
FINAL SINGLE POINT ENERGY      -112.703083448905
FINAL SINGLE POINT ENERGY      -112.702994217513
FINAL SINGLE POINT ENERGY      -112.702924653338
FINAL SINGLE POINT ENERGY      -112.702869355939
FINAL SINGLE POINT ENERGY      -112.702826208838

CARTESIAN COORDINATES (ANGSTROEM)
---------------------------------
  C      0.000000    0.000000    0.000000
  O      0.000000    0.000000    5.127100

FINAL SINGLE POINT ENERGY      -112.702791526924

DIPOLE MOMENT
-------------
                                X             Y             Z
Electronic contribution:      0.00000       0.00000      -0.03779
Nuclear contribution   :      0.00000       0.00000       0.03252
                        -----------------------------------------
Total Dipole Moment    :      0.00000       0.00000      -0.00527
                        -----------------------------------------
Magnitude (a.u.)       :      0.00527
Magnitude (Debye)      :      0.01340

Rotational constants in cm-1:     0.000000     0.093475     0.093475
Rotational constants in MHz :     0.000000  2802.303255  2802.303255

                             ****ORCA TERMINATED NORMALLY****
TOTAL RUN TIME: 0 days 0 hours 1 minutes 36 seconds 264 msec
