                         Program Version 4.2.0 -  RELEASE  -
|  1> ! wB97X 6-31G(d)  KDIIS NOSOSCF VerySlowConv Grid4
|  2> %paras
|  3> R=0.83724,5.33724,46
|  4> end
|  5> * int 0 1
|  6>  N  0  0  0  0 0 0
|  7>  C  1  0  0  1.45534 0 0
|  8>  C  2  1  0  1.51938  111.04843 0
|  9>  O  3  2  1  1.22573  122.36988 198.86400
| 10>  H  2  1  3  1.09516  108.63454 116.98175
| 11>  H  2  1  3  1.09999  114.96760 237.25779
| 12>  H  1  2  3  1.01539  110.30864  75.70402
| 13>  H  1  2  3  1.01331  110.56907 194.50553
| 14>  N  3  2  1  {R}      114.23572  20.16221
| 15>  C  9  3  2  1.44978  123.48397 185.06417
| 16>  C 10  9  3  1.54620  113.21767 287.54520
| 17>  O 11 10  9  1.19803  121.80556 239.30000
| 18>  H 10  9  3  1.09795  109.06786  46.79225
| 19>  H 10  9  3  1.08933  109.13556 166.37548
| 20>  H  9  3  2  1.01099  116.46823   1.30185
| 21>  O 11 10  9  1.31882  114.82224  60.62897
| 22>  H 16 11 10  0.99623  112.52129 355.72700
| 23> *
| 24>
| 25>                          ****END OF INPUT****
 Total Charge           Charge          ....    0
 Multiplicity           Mult            ....    1
 Number of Electrons    NEL             ....   70
 Basis Dimension        Dim             ....  142

ORBITAL ENERGIES
----------------

  NO   OCC          E(Eh)            E(eV)
   0   2.0000     -19.208784      -522.6976
   1   2.0000     -19.180491      -521.9277
   2   2.0000     -19.129657      -520.5444
   3   2.0000     -14.471297      -393.7840
   4   2.0000     -14.443096      -393.0166
   5   2.0000     -10.386555      -282.6325
   6   2.0000     -10.345683      -281.5203
   7   2.0000     -10.323522      -280.9173
   8   2.0000     -10.309713      -280.5415
   9   2.0000      -1.314772       -35.7768
  10   2.0000      -1.203491       -32.7486
  11   2.0000      -1.125470       -30.6256
  12   2.0000      -1.101732       -29.9797
  13   2.0000      -1.061766       -28.8921
  14   2.0000      -0.941989       -25.6328
  15   2.0000      -0.850591       -23.1458
  16   2.0000      -0.781533       -21.2666
  17   2.0000      -0.740274       -20.1439
  18   2.0000      -0.720408       -19.6033
  19   2.0000      -0.699705       -19.0400
  20   2.0000      -0.645099       -17.5540
  21   2.0000      -0.619790       -16.8653
  22   2.0000      -0.596218       -16.2239
  23   2.0000      -0.571763       -15.5585
  24   2.0000      -0.552095       -15.0233
  25   2.0000      -0.531999       -14.4764
  26   2.0000      -0.527962       -14.3666
  27   2.0000      -0.508279       -13.8310
  28   2.0000      -0.459867       -12.5136
  29   2.0000      -0.443534       -12.0692
  30   2.0000      -0.408154       -11.1064
  31   2.0000      -0.393124       -10.6974
  32   2.0000      -0.364253        -9.9118
  33   2.0000      -0.354887        -9.6570
  34   2.0000      -0.335567        -9.1312
  35   0.0000       0.117597         3.2000
  36   0.0000       0.141071         3.8387
  37   0.0000       0.179711         4.8902
  38   0.0000       0.193888         5.2759
  39   0.0000       0.205620         5.5952

MULLIKEN ATOMIC CHARGES
-----------------------
   0 N :   -0.793493
   1 C :   -0.306645
   2 C :    0.247176
   3 O :   -0.656000
   4 H :    0.202172
   5 H :    0.188077
   6 H :    0.337799
   7 H :    0.357133
   8 N :   -0.013119
   9 C :   -0.360530
  10 C :    0.541623
  11 O :   -0.413521
  12 H :    0.231957
  13 H :    0.192028
  14 H :    0.358083
  15 O :   -0.585313
  16 H :    0.472573
Sum of atomic charges:   -0.0000000

LOEWDIN ATOMIC CHARGES
----------------------
   0 N :   -0.474434
   1 C :   -0.191723
   2 C :   -0.165610
   3 O :   -0.398769
   4 H :    0.152675
   5 H :    0.138490
   6 H :    0.242195
   7 H :    0.255385
   8 N :    0.091948
   9 C :   -0.184172
  10 C :    0.114142
  11 O :   -0.222430
  12 H :    0.173446
  13 H :    0.146453
  14 H :    0.288154
  15 O :   -0.310733
  16 H :    0.344981

  Mayer bond orders larger than 0.100000
B(  0-N ,  1-C ) :   0.9811 B(  0-N ,  6-H ) :   0.8512 B(  0-N ,  7-H ) :   0.8442
B(  0-N , 14-H ) :   0.1380 B(  1-C ,  2-C ) :   0.8684 B(  1-C ,  4-H ) :   0.9303
B(  1-C ,  5-H ) :   0.9314 B(  2-C ,  3-O ) :   1.5036 B(  2-C ,  8-N ) :   1.7676
B(  3-O , 16-H ) :   0.1794 B(  8-N ,  9-C ) :   0.8987 B(  8-N , 14-H ) :   0.7325
B(  9-C , 10-C ) :   0.9180 B(  9-C , 12-H ) :   0.9111 B(  9-C , 13-H ) :   0.9264
B( 10-C , 11-O ) :   1.9732 B( 10-C , 15-O ) :   1.1933 B( 15-O , 16-H ) :   0.5897

FINAL SINGLE POINT ENERGY      -491.509786909916
FINAL SINGLE POINT ENERGY      -491.918107591374
FINAL SINGLE POINT ENERGY      -492.138891645213
FINAL SINGLE POINT ENERGY      -492.251367775310
FINAL SINGLE POINT ENERGY      -492.301152911209
FINAL SINGLE POINT ENERGY      -492.314983132283
FINAL SINGLE POINT ENERGY      -492.308733409388
FINAL SINGLE POINT ENERGY      -492.291776587400
FINAL SINGLE POINT ENERGY      -492.269728285677
FINAL SINGLE POINT ENERGY      -492.245886031479
FINAL SINGLE POINT ENERGY      -492.002558531871
FINAL SINGLE POINT ENERGY      -492.001169874094
FINAL SINGLE POINT ENERGY      -491.999880332362
FINAL SINGLE POINT ENERGY      -491.998677725488
FINAL SINGLE POINT ENERGY      -491.997551145453
FINAL SINGLE POINT ENERGY      -491.996489829091
FINAL SINGLE POINT ENERGY      -491.995487016127
FINAL SINGLE POINT ENERGY      -491.994534426362
FINAL SINGLE POINT ENERGY      -491.993627621579

CARTESIAN COORDINATES (ANGSTROEM)
---------------------------------
  N      0.000000    0.000000    0.000000
  C      1.455340    0.000000    0.000000
  C      2.001036    1.418003    0.000000
  O      3.151019    1.678601   -0.334724
  H      1.805277   -0.470833    0.924790
  H      1.919652   -0.539342   -0.838751
  H     -0.352419    0.235145   -0.922781
  H     -0.356013   -0.918469    0.237627
  N     -1.475862    5.103557    1.677498
  C     -1.203636    6.527420    1.658280
  C     -0.185077    6.967862    2.734981
  O     -0.464899    7.772577    3.577246
  H     -0.781355    6.798721    0.681772
  H     -2.134404    7.071082    1.815575
  H     -2.384491    4.767393    1.966440
  O      1.006132    6.411594    2.630714
  H      1.047633    5.732138    1.903327

FINAL SINGLE POINT ENERGY      -491.992761422977

DIPOLE MOMENT
-------------
                                X             Y             Z
Electronic contribution:      4.68965       5.48513       2.65691
Nuclear contribution   :     -4.66065      -8.63664      -4.56701
                        -----------------------------------------
Total Dipole Moment    :      0.02900      -3.15152      -1.91010
                        -----------------------------------------
Magnitude (a.u.)       :      3.68529
Magnitude (Debye)      :      9.36727

Rotational constants in cm-1:     0.078446     0.010763     0.009775
Rotational constants in MHz :  2351.760786   322.657015   293.050085

                             ****ORCA TERMINATED NORMALLY****
TOTAL RUN TIME: 0 days 0 hours 28 minutes 45 seconds 492 msec
