                         Program Version 4.2.0 -  RELEASE  -
|  1> ! wB97X 6-31G(d)  KDIIS NOSOSCF VerySlowConv Grid4
|  2> %paras
|  3> R= 0.2772,4.772,46
|  4> end
|  5> * xyz 0  1
|  6> H 0 0 0
|  7> H 0 0 {R}
|  8> *
|  9>
| 10>                          ****END OF INPUT****
 Total Charge           Charge          ....    0
 Multiplicity           Mult            ....    1
 Number of Electrons    NEL             ....    2
 Basis Dimension        Dim             ....    4

ORBITAL ENERGIES
----------------

  NO   OCC          E(Eh)            E(eV)
   0   2.0000      -0.671213       -18.2646
   1   0.0000       0.331474         9.0199
   2   0.0000       0.550382        14.9767
   3   0.0000       2.381897        64.8147

MULLIKEN ATOMIC CHARGES
-----------------------
   0 H :    0.000000
   1 H :   -0.000000
Sum of atomic charges:    0.0000000

LOEWDIN ATOMIC CHARGES
----------------------
   0 H :    0.000000
   1 H :   -0.000000

  Mayer bond orders larger than 0.100000
B(  0-H ,  1-H ) :   1.0000

FINAL SINGLE POINT ENERGY        -0.570516430505
FINAL SINGLE POINT ENERGY        -0.921676035595
FINAL SINGLE POINT ENERGY        -1.073997461725
FINAL SINGLE POINT ENERGY        -1.139973870764
FINAL SINGLE POINT ENERGY        -1.164124423511
FINAL SINGLE POINT ENERGY        -1.166790304247
FINAL SINGLE POINT ENERGY        -1.158183349336
FINAL SINGLE POINT ENERGY        -1.143759460393
FINAL SINGLE POINT ENERGY        -1.126526513258
FINAL SINGLE POINT ENERGY        -1.108163926957
FINAL SINGLE POINT ENERGY        -0.848894769638
FINAL SINGLE POINT ENERGY        -0.846106533741
FINAL SINGLE POINT ENERGY        -0.843554386825
FINAL SINGLE POINT ENERGY        -0.841216050155
FINAL SINGLE POINT ENERGY        -0.839068544457
FINAL SINGLE POINT ENERGY        -0.837093047255
FINAL SINGLE POINT ENERGY        -0.835272430790
FINAL SINGLE POINT ENERGY        -0.833589823889
FINAL SINGLE POINT ENERGY        -0.832028743478

CARTESIAN COORDINATES (ANGSTROEM)
---------------------------------
  H      0.000000    0.000000    0.000000
  H      0.000000    0.000000    4.772000

FINAL SINGLE POINT ENERGY        -0.830575640243

DIPOLE MOMENT
-------------
                                X             Y             Z
Electronic contribution:     -0.00000      -0.00000       0.00000
Nuclear contribution   :      0.00000       0.00000      -0.00000
                        -----------------------------------------
Total Dipole Moment    :      0.00000       0.00000       0.00000
                        -----------------------------------------
Magnitude (a.u.)       :      0.00000
Magnitude (Debye)      :      0.00000

Rotational constants in cm-1:     0.000000     1.468810     1.468810
Rotational constants in MHz :     0.000000 44033.803241 44033.803241

                             ****ORCA TERMINATED NORMALLY****
TOTAL RUN TIME: 0 days 0 hours 0 minutes 53 seconds 569 msec
