                         Program Version 4.2.0 -  RELEASE  -
|  1> ! wB97X 6-31G(d) KDIIS NOSOSCF VerySlowConv Grid4
|  2> %paras
|  3> R= 0.8163,5.3163,46
|  4> RH=1.0777
|  5> A=122.05
|  6> end
|  7> * int 0  1
|  8>  C 0 0 0 0 0 0
|  9>  C 1 0 0 {R} 0 0
| 10>  H 1 2 0 {RH} {A}     0
| 11>  H 1 2 3 {RH} {A}   180.0
| 12>  H 2 1 3 {RH} {A}     0.0
| 13>  H 2 1 3 {RH} {A}   180.0
| 14> *
| 15>
| 16>                          ****END OF INPUT****
 Total Charge           Charge          ....    0
 Multiplicity           Mult            ....    1
 Number of Electrons    NEL             ....   16
 Basis Dimension        Dim             ....   36

ORBITAL ENERGIES
----------------

  NO   OCC          E(Eh)            E(eV)
   0   2.0000     -10.255460      -279.0653
   1   2.0000     -10.187902      -277.2269
   2   2.0000      -0.959310       -26.1042
   3   2.0000      -0.690937       -18.8013
   4   2.0000      -0.630449       -17.1554
   5   2.0000      -0.531762       -14.4700
   6   2.0000      -0.519908       -14.1474
   7   2.0000      -0.354569        -9.6483
   8   0.0000       0.180796         4.9197
   9   0.0000       0.222712         6.0603
  10   0.0000       0.267732         7.2854
  11   0.0000       0.297529         8.0962
  12   0.0000       0.411455        11.1963

MULLIKEN ATOMIC CHARGES
-----------------------
   0 C :   -0.227829
   1 C :   -0.227830
   2 H :    0.113915
   3 H :    0.113915
   4 H :    0.113915
   5 H :    0.113915
Sum of atomic charges:    0.0000000

LOEWDIN ATOMIC CHARGES
----------------------
   0 C :   -0.248509
   1 C :   -0.248509
   2 H :    0.124255
   3 H :    0.124255
   4 H :    0.124255
   5 H :    0.124255

  Mayer bond orders larger than 0.100000
B(  0-C ,  1-C ) :   2.2993 B(  0-C ,  2-H ) :   0.8957 B(  0-C ,  3-H ) :   0.8957
B(  1-C ,  4-H ) :   0.8957 B(  1-C ,  5-H ) :   0.8957

FINAL SINGLE POINT ENERGY       -77.613046493537
FINAL SINGLE POINT ENERGY       -78.076954039502
FINAL SINGLE POINT ENERGY       -78.337017325088
FINAL SINGLE POINT ENERGY       -78.474342092044
FINAL SINGLE POINT ENERGY       -78.537377651751
FINAL SINGLE POINT ENERGY       -78.555735502099
FINAL SINGLE POINT ENERGY       -78.547644680690
FINAL SINGLE POINT ENERGY       -78.524346855006
FINAL SINGLE POINT ENERGY       -78.492810739935
FINAL SINGLE POINT ENERGY       -78.457326720893
FINAL SINGLE POINT ENERGY       -77.977285117748
FINAL SINGLE POINT ENERGY       -77.972411563389
FINAL SINGLE POINT ENERGY       -77.967946673778
FINAL SINGLE POINT ENERGY       -77.963851225569
FINAL SINGLE POINT ENERGY       -77.960088111051
FINAL SINGLE POINT ENERGY       -77.956622794579
FINAL SINGLE POINT ENERGY       -77.953423889838
FINAL SINGLE POINT ENERGY       -77.950459732284
FINAL SINGLE POINT ENERGY       -77.947703532444

CARTESIAN COORDINATES (ANGSTROEM)
---------------------------------
  C      0.000000    0.000000    0.000000
  C      5.316300    0.000000    0.000000
  H     -0.571891    0.913443    0.000000
  H     -0.571891   -0.913443   -0.000000
  H      5.888191    0.913443    0.000000
  H      5.888191   -0.913443    0.000000

FINAL SINGLE POINT ENERGY       -77.945132265053

DIPOLE MOMENT
-------------
                                X             Y             Z
Electronic contribution:     -0.00035      -0.00000       0.00000
Nuclear contribution   :     -0.00000       0.00000       0.00000
                        -----------------------------------------
Total Dipole Moment    :     -0.00035      -0.00000       0.00000
                        -----------------------------------------
Magnitude (a.u.)       :      0.00035
Magnitude (Debye)      :      0.00088

Rotational constants in cm-1:     5.010877     0.079592     0.078348
Rotational constants in MHz : 150222.315066  2386.113702  2348.805549

                             ****ORCA TERMINATED NORMALLY****
TOTAL RUN TIME: 0 days 0 hours 2 minutes 23 seconds 571 msec
