                         Program Version 4.2.0 -  RELEASE  -
|  1> ! wB97X 6-31G(d)  KDIIS NOSOSCF VerySlowConv Grid4
|  2> %paras
|  3> R= 0.4592,4.9592,46
|  4> end
|  5> * int 0  1
|  6> O 0 0 0 0 0 0
|  7> H 1 0 0 {R} 0 0
|  8> H 1 2 0 {R} 107.30 0
|  9> *
| 10>
| 11>                          ****END OF INPUT****
 Total Charge           Charge          ....    0
 Multiplicity           Mult            ....    1
 Number of Electrons    NEL             ....   10
 Basis Dimension        Dim             ....   18

ORBITAL ENERGIES
----------------

  NO   OCC          E(Eh)            E(eV)
   0   2.0000     -19.212941      -522.8107
   1   2.0000      -1.460244       -39.7353
   2   2.0000      -0.911024       -24.7902
   3   2.0000      -0.541924       -14.7465
   4   2.0000      -0.474930       -12.9235
   5   0.0000       0.272046         7.4027
   6   0.0000       0.356788         9.7087
   7   0.0000       0.902451        24.5569
   8   0.0000       0.974786        26.5253
   9   0.0000       1.079550        29.3761

MULLIKEN ATOMIC CHARGES
-----------------------
   0 O :   -0.149937
   1 H :    0.074970
   2 H :    0.074967
Sum of atomic charges:    0.0000000

LOEWDIN ATOMIC CHARGES
----------------------
   0 O :   -0.375719
   1 H :    0.187860
   2 H :    0.187859

  Mayer bond orders larger than 0.100000
B(  0-O ,  1-H ) :   0.9908 B(  0-O ,  2-H ) :   0.9908

FINAL SINGLE POINT ENERGY       -74.204690605259
FINAL SINGLE POINT ENERGY       -75.412129368843
FINAL SINGLE POINT ENERGY       -75.988004244804
FINAL SINGLE POINT ENERGY       -76.253036988976
FINAL SINGLE POINT ENERGY       -76.360139054248
FINAL SINGLE POINT ENERGY       -76.386396433445
FINAL SINGLE POINT ENERGY       -76.371909136115
FINAL SINGLE POINT ENERGY       -76.337817994856
FINAL SINGLE POINT ENERGY       -76.295351415499
FINAL SINGLE POINT ENERGY       -76.250409139069
FINAL SINGLE POINT ENERGY       -75.709365877728
FINAL SINGLE POINT ENERGY       -75.704646715632
FINAL SINGLE POINT ENERGY       -75.700325045601
FINAL SINGLE POINT ENERGY       -75.696360022520
FINAL SINGLE POINT ENERGY       -75.692713523885
FINAL SINGLE POINT ENERGY       -75.689347130465
FINAL SINGLE POINT ENERGY       -75.686225876651
FINAL SINGLE POINT ENERGY       -75.683319926906
FINAL SINGLE POINT ENERGY       -75.680604438751

CARTESIAN COORDINATES (ANGSTROEM)
---------------------------------
  O      0.000000    0.000000    0.000000
  H      4.959200    0.000000    0.000000
  H     -1.474741    4.734850    0.000000

FINAL SINGLE POINT ENERGY       -75.678057701560

DIPOLE MOMENT
-------------
                                X             Y             Z
Electronic contribution:     -2.26817      -3.08238       0.00000
Nuclear contribution   :      2.90033       3.94110       0.00000
                        -----------------------------------------
Total Dipole Moment    :      0.63216       0.85872       0.00000
                        -----------------------------------------
Magnitude (a.u.)       :      1.06631
Magnitude (Debye)      :      2.71035

Rotational constants in cm-1:     1.089760     0.524140     0.353917
Rotational constants in MHz : 32670.183746 15713.334016 10610.173326

                             ****ORCA TERMINATED NORMALLY****
TOTAL RUN TIME: 0 days 0 hours 1 minutes 28 seconds 240 msec
