                         Program Version 4.2.0 -  RELEASE  -
|  1> ! wB97X 6-31G(d) KDIIS NOSOSCF VerySlowConv Grid4
|  2> %paras
|  3> R= 0.6937,5.1937,46
|  4> end
|  5> * xyz 0 1
|  6>    C 0.0 0.0 0.0
|  7>    C {R} 0.0 0.0
|  8>    H -1.0498 0.0 0.0
|  9>    H {R+1.0498} 0.0 0.0
| 10> *
| 11>
| 12>                          ****END OF INPUT****
 Total Charge           Charge          ....    0
 Multiplicity           Mult            ....    1
 Number of Electrons    NEL             ....   14
 Basis Dimension        Dim             ....   32

ORBITAL ENERGIES
----------------

  NO   OCC          E(Eh)            E(eV)
   0   2.0000     -10.409614      -283.2600
   1   2.0000     -10.213125      -277.9133
   2   2.0000      -0.831604       -22.6291
   3   2.0000      -0.599224       -16.3057
   4   2.0000      -0.550120       -14.9695
   5   2.0000      -0.550120       -14.9695
   6   2.0000      -0.528764       -14.3884
   7   0.0000       0.270273         7.3545
   8   0.0000       0.276374         7.5205
   9   0.0000       0.328272         8.9327
  10   0.0000       0.328272         8.9327
  11   0.0000       0.512282        13.9399

MULLIKEN ATOMIC CHARGES
-----------------------
   0 C :   -0.110159
   1 C :   -0.110163
   2 H :    0.110161
   3 H :    0.110161
Sum of atomic charges:    0.0000000

LOEWDIN ATOMIC CHARGES
----------------------
   0 C :   -0.135043
   1 C :   -0.135043
   2 H :    0.135043
   3 H :    0.135043

  Mayer bond orders larger than 0.100000
B(  0-C ,  1-C ) :   3.4908 B(  0-C ,  2-H ) :   0.8417 B(  1-C ,  3-H ) :   0.8417

FINAL SINGLE POINT ENERGY       -75.656357147538
FINAL SINGLE POINT ENERGY       -76.466927328135
FINAL SINGLE POINT ENERGY       -76.920864129858
FINAL SINGLE POINT ENERGY       -77.157972404679
FINAL SINGLE POINT ENERGY       -77.265198970026
FINAL SINGLE POINT ENERGY       -77.295251834809
FINAL SINGLE POINT ENERGY       -77.280321639037
FINAL SINGLE POINT ENERGY       -77.240044094615
FINAL SINGLE POINT ENERGY       -77.186436228743
FINAL SINGLE POINT ENERGY       -77.126867525143
FINAL SINGLE POINT ENERGY       -76.397380260668
FINAL SINGLE POINT ENERGY       -76.391040914481
FINAL SINGLE POINT ENERGY       -76.385202212723
FINAL SINGLE POINT ENERGY       -76.379815264430
FINAL SINGLE POINT ENERGY       -76.374828460677
FINAL SINGLE POINT ENERGY       -76.370197947557
FINAL SINGLE POINT ENERGY       -76.365885823716
FINAL SINGLE POINT ENERGY       -76.361857253481
FINAL SINGLE POINT ENERGY       -76.358078832869

CARTESIAN COORDINATES (ANGSTROEM)
---------------------------------
  C      0.000000    0.000000    0.000000
  C      5.193700    0.000000    0.000000
  H     -1.049800    0.000000    0.000000
  H      6.243500    0.000000    0.000000

FINAL SINGLE POINT ENERGY       -76.354522753671

DIPOLE MOMENT
-------------
                                X             Y             Z
Electronic contribution:     -0.00008       0.00000      -0.00000
Nuclear contribution   :      0.00000       0.00000       0.00000
                        -----------------------------------------
Total Dipole Moment    :     -0.00008       0.00000      -0.00000
                        -----------------------------------------
Magnitude (a.u.)       :      0.00008
Magnitude (Debye)      :      0.00020

Rotational constants in cm-1:     0.000000     0.089286     0.089286
Rotational constants in MHz :     0.000000  2676.736286  2676.736286

                             ****ORCA TERMINATED NORMALLY****
TOTAL RUN TIME: 0 days 0 hours 1 minutes 59 seconds 50 msec
