                         Program Version 4.2.0 -  RELEASE  -
|  1> ! wB97X 6-31G(d) KDIIS NOSOSCF VerySlowConv Grid4
|  2> %paras
|  3> R= 0.6375,5.1375,46
|  4> end
|  5> * int 0  1
|  6> C 0 0 0 0 0 0
|  7> N 1 0 0 {R} 0 0
|  8> H 1 2 3 1.0584 179.98 0
|  9> *
| 10>
| 11>                          ****END OF INPUT****
 Total Charge           Charge          ....    0
 Multiplicity           Mult            ....    1
 Number of Electrons    NEL             ....   14
 Basis Dimension        Dim             ....   30

ORBITAL ENERGIES
----------------

  NO   OCC          E(Eh)            E(eV)
   0   2.0000     -14.464850      -393.6086
   1   2.0000     -10.401338      -283.0348
   2   2.0000      -1.013832       -27.5878
   3   2.0000      -0.693562       -18.8728
   4   2.0000      -0.693562       -18.8728
   5   2.0000      -0.657623       -17.8948
   6   2.0000      -0.368490       -10.0271
   7   0.0000       0.235560         6.4099
   8   0.0000       0.327460         8.9106
   9   0.0000       0.327460         8.9106
  10   0.0000       0.380320        10.3490
  11   0.0000       0.588288        16.0081

MULLIKEN ATOMIC CHARGES
-----------------------
   0 C :   -0.418069
   1 N :    0.227307
   2 H :    0.190762
Sum of atomic charges:    0.0000000

LOEWDIN ATOMIC CHARGES
----------------------
   0 C :   -0.217988
   1 N :    0.051165
   2 H :    0.166823

  Mayer bond orders larger than 0.100000
B(  0-C ,  1-N ) :   3.6988 B(  0-C ,  2-H ) :   0.8959

FINAL SINGLE POINT ENERGY       -91.055914842167
FINAL SINGLE POINT ENERGY       -92.248627680860
FINAL SINGLE POINT ENERGY       -92.886509555586
FINAL SINGLE POINT ENERGY       -93.207714754789
FINAL SINGLE POINT ENERGY       -93.349501496816
FINAL SINGLE POINT ENERGY       -93.390785006318
FINAL SINGLE POINT ENERGY       -93.376913084783
FINAL SINGLE POINT ENERGY       -93.334266462812
FINAL SINGLE POINT ENERGY       -93.278179144989
FINAL SINGLE POINT ENERGY       -93.217531426117
FINAL SINGLE POINT ENERGY       -92.755860532789
FINAL SINGLE POINT ENERGY       -92.753834119166
FINAL SINGLE POINT ENERGY       -92.751950180462
FINAL SINGLE POINT ENERGY       -92.750186409765
FINAL SINGLE POINT ENERGY       -92.748530830992
FINAL SINGLE POINT ENERGY       -92.746967669089
FINAL SINGLE POINT ENERGY       -92.745488707288
FINAL SINGLE POINT ENERGY       -92.744085958535
FINAL SINGLE POINT ENERGY       -92.742750735129

CARTESIAN COORDINATES (ANGSTROEM)
---------------------------------
  C      0.000000    0.000000    0.000000
  N      5.137500    0.000000    0.000000
  H     -1.058400    0.000369    0.000000

FINAL SINGLE POINT ENERGY       -92.741477633329

DIPOLE MOMENT
-------------
                                X             Y             Z
Electronic contribution:      0.04240      -0.00007      -0.00000
Nuclear contribution   :     -3.44013       0.00033       0.00000
                        -----------------------------------------
Total Dipole Moment    :     -3.39773       0.00026      -0.00000
                        -----------------------------------------
Magnitude (a.u.)       :      3.39773
Magnitude (Debye)      :      8.63635

Rotational constants in cm-1: 137854219.804905     0.091191     0.091191
Rotational constants in MHz : 4132765540098.474121  2733.841576  2733.841575

                             ****ORCA TERMINATED NORMALLY****
TOTAL RUN TIME: 0 days 0 hours 1 minutes 47 seconds 87 msec
