                         Program Version 4.2.0 -  RELEASE  -
|  1> ! wB97X 6-31G(d) KDIIS NOSOSCF VerySlowConv Grid4
|  2> %paras
|  3> R=0.4324,4.9324,46
|  4> end
|  5> * xyz 0  1
|  6> F 0 0 0
|  7> H 0 0 {R}
|  8> **                         ****END OF INPUT****
 Total Charge           Charge          ....    0
 Multiplicity           Mult            ....    1
 Number of Electrons    NEL             ....   10
 Basis Dimension        Dim             ....   16

ORBITAL ENERGIES
----------------

  NO   OCC          E(Eh)            E(eV)
   0   2.0000     -24.737158      -673.1323
   1   2.0000      -1.592726       -43.3403
   2   2.0000      -0.743376       -20.2283
   3   2.0000      -0.552396       -15.0315
   4   2.0000      -0.552396       -15.0315
   5   0.0000       0.290640         7.9087
   6   0.0000       1.132593        30.8194
   7   0.0000       1.270100        34.5612
   8   0.0000       1.270100        34.5612
   9   0.0000       1.710513        46.5454

MULLIKEN ATOMIC CHARGES
-----------------------
   0 F :   -0.032906
   1 H :    0.032906
Sum of atomic charges:    0.0000000

LOEWDIN ATOMIC CHARGES
----------------------
   0 F :   -0.162130
   1 H :    0.162130

  Mayer bond orders larger than 0.100000
B(  0-F ,  1-H ) :   1.0212

FINAL SINGLE POINT ENERGY       -99.124980587421
FINAL SINGLE POINT ENERGY       -99.852742178490
FINAL SINGLE POINT ENERGY      -100.182203811088
FINAL SINGLE POINT ENERGY      -100.327664369769
FINAL SINGLE POINT ENERGY      -100.384345596070
FINAL SINGLE POINT ENERGY      -100.397178586348
FINAL SINGLE POINT ENERGY      -100.388391575071
FINAL SINGLE POINT ENERGY      -100.369312944526
FINAL SINGLE POINT ENERGY      -100.345869235123
FINAL SINGLE POINT ENERGY      -100.321171085235
FINAL SINGLE POINT ENERGY      -100.041465675016
FINAL SINGLE POINT ENERGY      -100.039259243293
FINAL SINGLE POINT ENERGY      -100.037231195234
FINAL SINGLE POINT ENERGY      -100.035358941767
FINAL SINGLE POINT ENERGY      -100.033623540710
FINAL SINGLE POINT ENERGY      -100.032009868544
FINAL SINGLE POINT ENERGY      -100.030503674943
FINAL SINGLE POINT ENERGY      -100.029090203291
FINAL SINGLE POINT ENERGY      -100.027757813627

CARTESIAN COORDINATES (ANGSTROEM)
---------------------------------
  F      0.000000    0.000000    0.000000
  H      0.000000    0.000000    4.932400

FINAL SINGLE POINT ENERGY      -100.026498457825

DIPOLE MOMENT
-------------
                                X             Y             Z
Electronic contribution:      0.00000       0.00000      -2.32582
Nuclear contribution   :      0.00000       0.00000       4.62457
                        -----------------------------------------
Total Dipole Moment    :      0.00000       0.00000       2.29875
                        -----------------------------------------
Magnitude (a.u.)       :      2.29875
Magnitude (Debye)      :      5.84296

Rotational constants in cm-1:     0.000000     0.723889     0.723889
Rotational constants in MHz :     0.000000 21701.655988 21701.655988

                             ****ORCA TERMINATED NORMALLY****
TOTAL RUN TIME: 0 days 0 hours 1 minutes 8 seconds 951 msec
