                         Program Version 4.2.0 -  RELEASE  -
|  1> ! wB97X 6-31G(d)  KDIIS NOSOSCF VerySlowConv Grid4
|  2> %paras
|  3> R= 0.5982,5.0982,46
|  4> end
|  5> * xyz 0  1
|  6> N 0 0 0
|  7> N 0 0 {R}
|  8> **                         ****END OF INPUT****
 Total Charge           Charge          ....    0
 Multiplicity           Mult            ....    1
 Number of Electrons    NEL             ....   14
 Basis Dimension        Dim             ....   28

ORBITAL ENERGIES
----------------

  NO   OCC          E(Eh)            E(eV)
   0   2.0000     -14.723296      -400.6412
   1   2.0000     -14.472065      -393.8049
   2   2.0000      -1.294237       -35.2180
   3   2.0000      -0.879908       -23.9435
   4   2.0000      -0.879908       -23.9435
   5   2.0000      -0.524171       -14.2634
   6   2.0000      -0.488077       -13.2813
   7   0.0000       0.409842        11.1524
   8   0.0000       0.409842        11.1524
   9   0.0000       0.565723        15.3941
  10   0.0000       0.565723        15.3941
  11   0.0000       0.596481        16.2311

MULLIKEN ATOMIC CHARGES
-----------------------
   0 N :   -0.000000
   1 N :    0.000000
Sum of atomic charges:   -0.0000000

LOEWDIN ATOMIC CHARGES
----------------------
   0 N :   -0.000000
   1 N :    0.000000

  Mayer bond orders larger than 0.100000
B(  0-N ,  1-N ) :   3.3743

FINAL SINGLE POINT ENERGY      -106.497785164955
FINAL SINGLE POINT ENERGY      -108.086464784553
FINAL SINGLE POINT ENERGY      -108.898190480658
FINAL SINGLE POINT ENERGY      -109.290430047879
FINAL SINGLE POINT ENERGY      -109.454327282692
FINAL SINGLE POINT ENERGY      -109.495463671824
FINAL SINGLE POINT ENERGY      -109.473145484550
FINAL SINGLE POINT ENERGY      -109.420474045341
FINAL SINGLE POINT ENERGY      -109.355477962801
FINAL SINGLE POINT ENERGY      -109.287621135524
FINAL SINGLE POINT ENERGY      -108.609326835466
FINAL SINGLE POINT ENERGY      -108.603650654276
FINAL SINGLE POINT ENERGY      -108.598394159229
FINAL SINGLE POINT ENERGY      -108.593513611436
FINAL SINGLE POINT ENERGY      -108.588966782132
FINAL SINGLE POINT ENERGY      -108.584714052780
FINAL SINGLE POINT ENERGY      -108.580724508902
FINAL SINGLE POINT ENERGY      -108.576974198530
FINAL SINGLE POINT ENERGY      -108.573438782812

CARTESIAN COORDINATES (ANGSTROEM)
---------------------------------
  N      0.000000    0.000000    0.000000
  N      0.000000    0.000000    5.098200

FINAL SINGLE POINT ENERGY      -108.570091597062

DIPOLE MOMENT
-------------
                                X             Y             Z
Electronic contribution:      0.00000       0.00000      -0.00000
Nuclear contribution   :      0.00000       0.00000      -0.00000
                        -----------------------------------------
Total Dipole Moment    :      0.00000       0.00000      -0.00000
                        -----------------------------------------
Magnitude (a.u.)       :      0.00000
Magnitude (Debye)      :      0.00000

Rotational constants in cm-1:     0.000000     0.092608     0.092608
Rotational constants in MHz :     0.000000  2776.314963  2776.314963

                             ****ORCA TERMINATED NORMALLY****
TOTAL RUN TIME: 0 days 0 hours 1 minutes 28 seconds 483 msec
