                         Program Version 4.2.0 -  RELEASE  -
|  1> ! wB97X 6-31G(d)  KDIIS NOSOSCF VerySlowConv Grid4
|  2> %paras
|  3> R= 0.5126,5.0126,46
|  4> A= 107.67
|  5> end
|  6> * int 0  1
|  7> N 0 0 0 0 0 0
|  8> H 1 0 0 {R} 0 0
|  9> H 1 2 0 {R} {A} 0
| 10> H 1 2 3 {R} {A} 244.15
| 11> *
| 12>
| 13>                          ****END OF INPUT****
 Total Charge           Charge          ....    0
 Multiplicity           Mult            ....    1
 Number of Electrons    NEL             ....   10
 Basis Dimension        Dim             ....   20

ORBITAL ENERGIES
----------------

  NO   OCC          E(Eh)            E(eV)
   0   2.0000     -14.355323      -390.6282
   1   2.0000      -1.244240       -33.8575
   2   2.0000      -0.763455       -20.7747
   3   2.0000      -0.763408       -20.7734
   4   2.0000      -0.400612       -10.9012
   5   0.0000       0.268207         7.2983
   6   0.0000       0.369132        10.0446
   7   0.0000       0.369147        10.0450
   8   0.0000       0.780648        21.2425
   9   0.0000       0.824284        22.4299

MULLIKEN ATOMIC CHARGES
-----------------------
   0 N :   -0.219244
   1 H :    0.073068
   2 H :    0.073086
   3 H :    0.073090
Sum of atomic charges:    0.0000000

LOEWDIN ATOMIC CHARGES
----------------------
   0 N :   -0.570098
   1 H :    0.190037
   2 H :    0.190031
   3 H :    0.190030

  Mayer bond orders larger than 0.100000
B(  0-N ,  1-H ) :   0.9175 B(  0-N ,  2-H ) :   0.9175 B(  0-N ,  3-H ) :   0.9175

FINAL SINGLE POINT ENERGY       -54.181592090846
FINAL SINGLE POINT ENERGY       -55.432888073003
FINAL SINGLE POINT ENERGY       -56.062983342025
FINAL SINGLE POINT ENERGY       -56.367480902067
FINAL SINGLE POINT ENERGY       -56.495950220609
FINAL SINGLE POINT ENERGY       -56.528201192765
FINAL SINGLE POINT ENERGY       -56.508571333670
FINAL SINGLE POINT ENERGY       -56.462412495898
FINAL SINGLE POINT ENERGY       -56.404457364521
FINAL SINGLE POINT ENERGY       -56.343112806333
FINAL SINGLE POINT ENERGY       -55.613508707430
FINAL SINGLE POINT ENERGY       -55.608506091583
FINAL SINGLE POINT ENERGY       -55.603964362257
FINAL SINGLE POINT ENERGY       -55.599832756357
FINAL SINGLE POINT ENERGY       -55.596062986974
FINAL SINGLE POINT ENERGY       -55.592608435583
FINAL SINGLE POINT ENERGY       -55.589430124771
FINAL SINGLE POINT ENERGY       -55.586496258193
FINAL SINGLE POINT ENERGY       -55.583781005756

CARTESIAN COORDINATES (ANGSTROEM)
---------------------------------
  N      0.000000    0.000000    0.000000
  H      5.012600    0.000000    0.000000
  H     -1.521496    4.776108    0.000000
  H     -1.521496   -2.082463    4.298204

FINAL SINGLE POINT ENERGY       -55.581257608233

DIPOLE MOMENT
-------------
                                X             Y             Z
Electronic contribution:     -1.57770      -2.15791      -3.44463
Nuclear contribution   :      1.51910       2.07753       3.31507
                        -----------------------------------------
Total Dipole Moment    :     -0.05860      -0.08039      -0.12956
                        -----------------------------------------
Magnitude (a.u.)       :      0.16334
Magnitude (Debye)      :      0.41518

Rotational constants in cm-1:     0.409209     0.409150     0.255293
Rotational constants in MHz : 12267.782302 12265.993951  7653.477171

                             ****ORCA TERMINATED NORMALLY****
TOTAL RUN TIME: 0 days 0 hours 1 minutes 45 seconds 532 msec
