                         Program Version 4.0.0.2 - RELEASE -
|  1> ! WB97X-D3 6-31G(d) VerySlowConv
|  2> ! KDIIS NOSOSCF
|  3> %base "Scan_1"
|  4>
|  5> %scf
|  6> maxiter 999
|  7> end
|  8>
|  9> * xyz 0 1
| 10> C         -0.631334668680    1.613610000000    0.000000000000
| 11> O          0.372294668680    1.613610000000    0.000000000000
| 12> **                         ****END OF INPUT****

CARTESIAN COORDINATES (ANGSTROEM)
---------------------------------
  C     -0.631335    1.613610    0.000000
  O      0.372295    1.613610    0.000000

 Total Charge           Charge          ....    0
 Multiplicity           Mult            ....    1
 Number of Electrons    NEL             ....   14
 Basis Dimension        Dim             ....   28

ORBITAL ENERGIES
----------------

  NO   OCC          E(Eh)            E(eV)
   0   2.0000     -19.352285      -526.6024
   1   2.0000     -10.358850      -281.8786
   2   2.0000      -1.347660       -36.6717
   3   2.0000      -0.674430       -18.3522
   4   2.0000      -0.618648       -16.8343
   5   2.0000      -0.618648       -16.8343
   6   2.0000      -0.455458       -12.3937
   7   0.0000       0.132676         3.6103
   8   0.0000       0.132676         3.6103
   9   0.0000       0.369462        10.0536
  10   0.0000       0.613983        16.7073
  11   0.0000       0.613983        16.7073

MULLIKEN ATOMIC CHARGES
-----------------------
   0 C :    0.040333
   1 O :   -0.040333
Sum of atomic charges:   -0.0000000

LOEWDIN ATOMIC CHARGES
----------------------
   0 C :   -0.112007
   1 O :    0.112007

  Mayer bond orders larger than 0.1
B(  0-C ,  1-O ) :   2.4942

Dispersion correction           -0.000000042
FINAL SINGLE POINT ENERGY      -113.219262857840

DIPOLE MOMENT
-------------
                                X             Y             Z
Electronic contribution:      0.18727       0.00000      -0.00000
Nuclear contribution   :      0.00636      -0.00000       0.00000
                        -----------------------------------------
Total Dipole Moment    :      0.19364       0.00000      -0.00000
                        -----------------------------------------
Magnitude (a.u.)       :      0.19364
Magnitude (Debye)      :      0.49219

                             ****ORCA TERMINATED NORMALLY****
TOTAL RUN TIME: 0 days 0 hours 0 minutes 4 seconds 263 msec
