                         Program Version 4.0.0.2 - RELEASE -
|  1> ! WB97X-D3 6-31G(d) VerySlowConv
|  2> ! KDIIS NOSOSCF
|  3> %base "Scan_10"
|  4>
|  5> %scf
|  6> maxiter 999
|  7> end
|  8>
|  9> * xyz 0 1
| 10> C         -0.746224120609    1.613610000000   -0.000000000000
| 11> O          0.487184120609    1.613610000000   -0.000000000000
| 12> **                         ****END OF INPUT****

CARTESIAN COORDINATES (ANGSTROEM)
---------------------------------
  C     -0.746224    1.613610   -0.000000
  O      0.487184    1.613610   -0.000000

 Total Charge           Charge          ....    0
 Multiplicity           Mult            ....    1
 Number of Electrons    NEL             ....   14
 Basis Dimension        Dim             ....   28

ORBITAL ENERGIES
----------------

  NO   OCC          E(Eh)            E(eV)
   0   2.0000     -19.359815      -526.8074
   1   2.0000     -10.436260      -283.9851
   2   2.0000      -1.219473       -33.1835
   3   2.0000      -0.674731       -18.3604
   4   2.0000      -0.535111       -14.5611
   5   2.0000      -0.535111       -14.5611
   6   2.0000      -0.478349       -13.0165
   7   0.0000       0.037787         1.0282
   8   0.0000       0.037787         1.0282
   9   0.0000       0.338629         9.2146
  10   0.0000       0.621693        16.9171
  11   0.0000       0.621693        16.9171

MULLIKEN ATOMIC CHARGES
-----------------------
   0 C :    0.245872
   1 O :   -0.245872
Sum of atomic charges:   -0.0000000

LOEWDIN ATOMIC CHARGES
----------------------
   0 C :    0.074924
   1 O :   -0.074924

  Mayer bond orders larger than 0.1
B(  0-C ,  1-O ) :   2.3485

Dispersion correction           -0.000000221
FINAL SINGLE POINT ENERGY      -113.256960618426

DIPOLE MOMENT
-------------
                                X             Y             Z
Electronic contribution:     -0.13586      -0.00000       0.00000
Nuclear contribution   :      0.00782      -0.00000       0.00000
                        -----------------------------------------
Total Dipole Moment    :     -0.12804      -0.00000       0.00000
                        -----------------------------------------
Magnitude (a.u.)       :      0.12804
Magnitude (Debye)      :      0.32545

                             ****ORCA TERMINATED NORMALLY****
TOTAL RUN TIME: 0 days 0 hours 0 minutes 4 seconds 819 msec
