                         Program Version 4.0.0.2 - RELEASE -
|  1> ! WB97X-D3 6-31G(d) VerySlowConv
|  2> ! KDIIS NOSOSCF
|  3> %base "Scan_11"
|  4>
|  5> %scf
|  6> maxiter 999
|  7> end
|  8>
|  9> * xyz 0 1
| 10> C         -0.772876876038    1.613610000000   -0.000000000000
| 11> O          0.513836876038    1.613610000000    0.000000000000
| 12> **                         ****END OF INPUT****

CARTESIAN COORDINATES (ANGSTROEM)
---------------------------------
  C     -0.772877    1.613610   -0.000000
  O      0.513837    1.613610    0.000000

 Total Charge           Charge          ....    0
 Multiplicity           Mult            ....    1
 Number of Electrons    NEL             ....   14
 Basis Dimension        Dim             ....   28

ORBITAL ENERGIES
----------------

  NO   OCC          E(Eh)            E(eV)
   0   2.0000     -19.359162      -526.7896
   1   2.0000     -10.452273      -284.4208
   2   2.0000      -1.192781       -32.4572
   3   2.0000      -0.675905       -18.3923
   4   2.0000      -0.519245       -14.1294
   5   2.0000      -0.519245       -14.1294
   6   2.0000      -0.480718       -13.0810
   7   0.0000       0.020488         0.5575
   8   0.0000       0.020488         0.5575
   9   0.0000       0.320232         8.7140
  10   0.0000       0.622176        16.9303
  11   0.0000       0.622176        16.9303

MULLIKEN ATOMIC CHARGES
-----------------------
   0 C :    0.279560
   1 O :   -0.279560
Sum of atomic charges:   -0.0000000

LOEWDIN ATOMIC CHARGES
----------------------
   0 C :    0.112141
   1 O :   -0.112141

  Mayer bond orders larger than 0.1
B(  0-C ,  1-O ) :   2.3264

Dispersion correction           -0.000000310
FINAL SINGLE POINT ENERGY      -113.236424078103

DIPOLE MOMENT
-------------
                                X             Y             Z
Electronic contribution:     -0.21161       0.00000       0.00000
Nuclear contribution   :      0.00816      -0.00000       0.00000
                        -----------------------------------------
Total Dipole Moment    :     -0.20345       0.00000       0.00000
                        -----------------------------------------
Magnitude (a.u.)       :      0.20345
Magnitude (Debye)      :      0.51712

                             ****ORCA TERMINATED NORMALLY****
TOTAL RUN TIME: 0 days 0 hours 0 minutes 4 seconds 978 msec
