                         Program Version 4.0.0.2 - RELEASE -
|  1> ! WB97X-D3 6-31G(d) VerySlowConv
|  2> ! KDIIS NOSOSCF
|  3> %base "Scan_12"
|  4>
|  5> %scf
|  6> maxiter 999
|  7> end
|  8>
|  9> * xyz 0 1
| 10> C         -0.806444053013    1.613610000000    0.000000000000
| 11> O          0.547404053013    1.613610000000    0.000000000000
| 12> **                         ****END OF INPUT****

CARTESIAN COORDINATES (ANGSTROEM)
---------------------------------
  C     -0.806444    1.613610    0.000000
  O      0.547404    1.613610    0.000000

 Total Charge           Charge          ....    0
 Multiplicity           Mult            ....    1
 Number of Electrons    NEL             ....   14
 Basis Dimension        Dim             ....   28

ORBITAL ENERGIES
----------------

  NO   OCC          E(Eh)            E(eV)
   0   2.0000     -19.357398      -526.7416
   1   2.0000     -10.470696      -284.9221
   2   2.0000      -1.161750       -31.6128
   3   2.0000      -0.678343       -18.4586
   4   2.0000      -0.500797       -13.6274
   5   2.0000      -0.500797       -13.6274
   6   2.0000      -0.481880       -13.1126
   7   0.0000       0.000892         0.0243
   8   0.0000       0.000892         0.0243
   9   0.0000       0.288233         7.8432
  10   0.0000       0.621741        16.9184
  11   0.0000       0.621901        16.9228

MULLIKEN ATOMIC CHARGES
-----------------------
   0 C :    0.313183
   1 O :   -0.313183
Sum of atomic charges:    0.0000000

LOEWDIN ATOMIC CHARGES
----------------------
   0 C :    0.153902
   1 O :   -0.153902

  Mayer bond orders larger than 0.1
B(  0-C ,  1-O ) :   2.3067

Dispersion correction           -0.000000466
FINAL SINGLE POINT ENERGY      -113.204730474377

DIPOLE MOMENT
-------------
                                X             Y             Z
Electronic contribution:     -0.30573       0.00000       0.00000
Nuclear contribution   :      0.00859      -0.00000       0.00000
                        -----------------------------------------
Total Dipole Moment    :     -0.29714       0.00000       0.00000
                        -----------------------------------------
Magnitude (a.u.)       :      0.29714
Magnitude (Debye)      :      0.75528

                             ****ORCA TERMINATED NORMALLY****
TOTAL RUN TIME: 0 days 0 hours 0 minutes 3 seconds 864 msec
