                         Program Version 4.0.0.2 - RELEASE -
|  1> ! WB97X-D3 6-31G(d) VerySlowConv
|  2> ! KDIIS NOSOSCF
|  3> %base "Scan_13"
|  4>
|  5> %scf
|  6> maxiter 999
|  7> end
|  8>
|  9> * xyz 0 1
| 10> C         -0.849606116232    1.613610000000    0.000000000000
| 11> O          0.590566116232    1.613610000000    0.000000000000
| 12> **                         ****END OF INPUT****

CARTESIAN COORDINATES (ANGSTROEM)
---------------------------------
  C     -0.849606    1.613610    0.000000
  O      0.590566    1.613610    0.000000

 Total Charge           Charge          ....    0
 Multiplicity           Mult            ....    1
 Number of Electrons    NEL             ....   14
 Basis Dimension        Dim             ....   28

ORBITAL ENERGIES
----------------

  NO   OCC          E(Eh)            E(eV)
   0   2.0000     -19.354114      -526.6522
   1   2.0000     -10.491650      -285.4923
   2   2.0000      -1.126344       -30.6494
   3   2.0000      -0.682894       -18.5825
   4   2.0000      -0.480429       -13.0731
   5   2.0000      -0.479477       -13.0472
   6   2.0000      -0.479477       -13.0472
   7   0.0000      -0.021148        -0.5755
   8   0.0000      -0.021148        -0.5755
   9   0.0000       0.237363         6.4590
  10   0.0000       0.592552        16.1242
  11   0.0000       0.620078        16.8732

MULLIKEN ATOMIC CHARGES
-----------------------
   0 C :    0.342450
   1 O :   -0.342450
Sum of atomic charges:   -0.0000000

LOEWDIN ATOMIC CHARGES
----------------------
   0 C :    0.198301
   1 O :   -0.198301

  Mayer bond orders larger than 0.1
B(  0-C ,  1-O ) :   2.2936

Dispersion correction           -0.000000764
FINAL SINGLE POINT ENERGY      -113.159140091137

DIPOLE MOMENT
-------------
                                X             Y             Z
Electronic contribution:     -0.42300       0.00000       0.00000
Nuclear contribution   :      0.00913      -0.00000       0.00000
                        -----------------------------------------
Total Dipole Moment    :     -0.41387       0.00000       0.00000
                        -----------------------------------------
Magnitude (a.u.)       :      0.41387
Magnitude (Debye)      :      1.05197

                             ****ORCA TERMINATED NORMALLY****
TOTAL RUN TIME: 0 days 0 hours 0 minutes 4 seconds 148 msec
