                         Program Version 4.0.0.2 - RELEASE -
|  1> ! WB97X-D3 6-31G(d) VerySlowConv
|  2> ! KDIIS NOSOSCF
|  3> %base "Scan_14"
|  4>
|  5> %scf
|  6> maxiter 999
|  7> end
|  8>
|  9> * xyz 0 1
| 10> C         -0.905955503980    1.613610000000    0.000000000000
| 11> O          0.646915503980    1.613610000000    0.000000000000
| 12> **                         ****END OF INPUT****

CARTESIAN COORDINATES (ANGSTROEM)
---------------------------------
  C     -0.905956    1.613610    0.000000
  O      0.646916    1.613610    0.000000

 Total Charge           Charge          ....    0
 Multiplicity           Mult            ....    1
 Number of Electrons    NEL             ....   14
 Basis Dimension        Dim             ....   28

ORBITAL ENERGIES
----------------

  NO   OCC          E(Eh)            E(eV)
   0   2.0000     -19.348840      -526.5087
   1   2.0000     -10.514359      -286.1103
   2   2.0000      -1.087638       -29.5961
   3   2.0000      -0.690503       -18.7896
   4   2.0000      -0.474135       -12.9019
   5   2.0000      -0.455357       -12.3909
   6   2.0000      -0.455357       -12.3909
   7   0.0000      -0.045273        -1.2319
   8   0.0000      -0.045273        -1.2319
   9   0.0000       0.168925         4.5967
  10   0.0000       0.583304        15.8725
  11   0.0000       0.615623        16.7519

MULLIKEN ATOMIC CHARGES
-----------------------
   0 C :    0.359177
   1 O :   -0.359177
Sum of atomic charges:    0.0000000

LOEWDIN ATOMIC CHARGES
----------------------
   0 C :    0.240263
   1 O :   -0.240263

  Mayer bond orders larger than 0.1
B(  0-C ,  1-O ) :   2.2920

Dispersion correction           -0.000001399
FINAL SINGLE POINT ENERGY      -113.097714326083

DIPOLE MOMENT
-------------
                                X             Y             Z
Electronic contribution:     -0.56714       0.00000       0.00000
Nuclear contribution   :      0.00985      -0.00000       0.00000
                        -----------------------------------------
Total Dipole Moment    :     -0.55730       0.00000       0.00000
                        -----------------------------------------
Magnitude (a.u.)       :      0.55730
Magnitude (Debye)      :      1.41653

                             ****ORCA TERMINATED NORMALLY****
TOTAL RUN TIME: 0 days 0 hours 0 minutes 4 seconds 443 msec
