                         Program Version 4.0.0.2 - RELEASE -
|  1> ! WB97X-D3 6-31G(d) VerySlowConv
|  2> ! KDIIS NOSOSCF
|  3> %base "Scan_15"
|  4>
|  5> %scf
|  6> maxiter 999
|  7> end
|  8>
|  9> * xyz 0 1
| 10> C         -0.976362332736    1.613610000000   -0.000000000000
| 11> O          0.717322332736    1.613610000000    0.000000000000
| 12> **                         ****END OF INPUT****

CARTESIAN COORDINATES (ANGSTROEM)
---------------------------------
  C     -0.976362    1.613610   -0.000000
  O      0.717322    1.613610    0.000000

 Total Charge           Charge          ....    0
 Multiplicity           Mult            ....    1
 Number of Electrons    NEL             ....   14
 Basis Dimension        Dim             ....   28

ORBITAL ENERGIES
----------------

  NO   OCC          E(Eh)            E(eV)
   0   2.0000     -19.341503      -526.3090
   1   2.0000     -10.536136      -286.7028
   2   2.0000      -1.050372       -28.5821
   3   2.0000      -0.700877       -19.0718
   4   2.0000      -0.461497       -12.5580
   5   2.0000      -0.430352       -11.7105
   6   2.0000      -0.430352       -11.7105
   7   0.0000      -0.069285        -1.8853
   8   0.0000      -0.069285        -1.8853
   9   0.0000       0.095262         2.5922
  10   0.0000       0.587009        15.9733
  11   0.0000       0.607906        16.5420

MULLIKEN ATOMIC CHARGES
-----------------------
   0 C :    0.356952
   1 O :   -0.356952
Sum of atomic charges:   -0.0000000

LOEWDIN ATOMIC CHARGES
----------------------
   0 C :    0.271126
   1 O :   -0.271126

  Mayer bond orders larger than 0.1
B(  0-C ,  1-O ) :   2.2997

Dispersion correction           -0.000002836
FINAL SINGLE POINT ENERGY      -113.024548073968

DIPOLE MOMENT
-------------
                                X             Y             Z
Electronic contribution:     -0.73031      -0.00000      -0.00000
Nuclear contribution   :      0.01074      -0.00000       0.00000
                        -----------------------------------------
Total Dipole Moment    :     -0.71957      -0.00000      -0.00000
                        -----------------------------------------
Magnitude (a.u.)       :      0.71957
Magnitude (Debye)      :      1.82901

                             ****ORCA TERMINATED NORMALLY****
TOTAL RUN TIME: 0 days 0 hours 0 minutes 4 seconds 147 msec
