                         Program Version 4.0.0.2 - RELEASE -
|  1> ! WB97X-D3 6-31G(d) VerySlowConv
|  2> ! KDIIS NOSOSCF
|  3> %base "Scan_16"
|  4>
|  5> %scf
|  6> maxiter 999
|  7> end
|  8>
|  9> * xyz 0 1
| 10> C         -1.053024506231    1.613610000000   -0.000000000000
| 11> O          0.793984506231    1.613610000000    0.000000000000
| 12> **                         ****END OF INPUT****

CARTESIAN COORDINATES (ANGSTROEM)
---------------------------------
  C     -1.053025    1.613610   -0.000000
  O      0.793985    1.613610    0.000000

 Total Charge           Charge          ....    0
 Multiplicity           Mult            ....    1
 Number of Electrons    NEL             ....   14
 Basis Dimension        Dim             ....   28

ORBITAL ENERGIES
----------------

  NO   OCC          E(Eh)            E(eV)
   0   2.0000     -19.333184      -526.0827
   1   2.0000     -10.553208      -287.1674
   2   2.0000      -1.021048       -27.7841
   3   2.0000      -0.711303       -19.3555
   4   2.0000      -0.444718       -12.1014
   5   2.0000      -0.408507       -11.1160
   6   2.0000      -0.408507       -11.1160
   7   0.0000      -0.089312        -2.4303
   8   0.0000      -0.089312        -2.4303
   9   0.0000       0.034406         0.9362
  10   0.0000       0.591267        16.0892
  11   0.0000       0.598481        16.2855

MULLIKEN ATOMIC CHARGES
-----------------------
   0 C :    0.341626
   1 O :   -0.341626
Sum of atomic charges:    0.0000000

LOEWDIN ATOMIC CHARGES
----------------------
   0 C :    0.286683
   1 O :   -0.286683

  Mayer bond orders larger than 0.1
B(  0-C ,  1-O ) :   2.3002

Dispersion correction           -0.000006112
FINAL SINGLE POINT ENERGY      -112.953097242518

DIPOLE MOMENT
-------------
                                X             Y             Z
Electronic contribution:     -0.88718       0.00000      -0.00000
Nuclear contribution   :      0.01171      -0.00000       0.00000
                        -----------------------------------------
Total Dipole Moment    :     -0.87546       0.00000      -0.00000
                        -----------------------------------------
Magnitude (a.u.)       :      0.87546
Magnitude (Debye)      :      2.22525

                             ****ORCA TERMINATED NORMALLY****
TOTAL RUN TIME: 0 days 0 hours 0 minutes 4 seconds 624 msec
