                         Program Version 4.0.0.2 - RELEASE -
|  1> ! WB97X-D3 6-31G(d) VerySlowConv
|  2> ! KDIIS NOSOSCF
|  3> %base "Scan_17"
|  4>
|  5> %scf
|  6> maxiter 999
|  7> end
|  8>
|  9> * xyz 0 1
| 10> C         -1.124896706371    1.613610000000   -0.000000000000
| 11> O          0.865856706371    1.613610000000    0.000000000000
| 12> **                         ****END OF INPUT****

CARTESIAN COORDINATES (ANGSTROEM)
---------------------------------
  C     -1.124897    1.613610   -0.000000
  O      0.865857    1.613610    0.000000

 Total Charge           Charge          ....    0
 Multiplicity           Mult            ....    1
 Number of Electrons    NEL             ....   14
 Basis Dimension        Dim             ....   28

ORBITAL ENERGIES
----------------

  NO   OCC          E(Eh)            E(eV)
   0   2.0000     -19.324780      -525.8540
   1   2.0000     -10.564329      -287.4700
   2   2.0000      -1.001155       -27.2428
   3   2.0000      -0.719267       -19.5722
   4   2.0000      -0.428034       -11.6474
   5   2.0000      -0.391998       -10.6668
   6   2.0000      -0.391998       -10.6668
   7   0.0000      -0.103595        -2.8190
   8   0.0000      -0.103595        -2.8190
   9   0.0000      -0.008033        -0.2186
  10   0.0000       0.590156        16.0590
  11   0.0000       0.590156        16.0590

MULLIKEN ATOMIC CHARGES
-----------------------
   0 C :    0.326180
   1 O :   -0.326180
Sum of atomic charges:   -0.0000000

LOEWDIN ATOMIC CHARGES
----------------------
   0 C :    0.292776
   1 O :   -0.292776

  Mayer bond orders larger than 0.1
B(  0-C ,  1-O ) :   2.2772

Dispersion correction           -0.000011825
FINAL SINGLE POINT ENERGY      -112.894838140834

DIPOLE MOMENT
-------------
                                X             Y             Z
Electronic contribution:     -1.01809       0.00000       0.00000
Nuclear contribution   :      0.01262      -0.00000       0.00000
                        -----------------------------------------
Total Dipole Moment    :     -1.00546       0.00000       0.00000
                        -----------------------------------------
Magnitude (a.u.)       :      1.00546
Magnitude (Debye)      :      2.55569

                             ****ORCA TERMINATED NORMALLY****
TOTAL RUN TIME: 0 days 0 hours 0 minutes 5 seconds 264 msec
