                         Program Version 4.0.0.2 - RELEASE -
|  1> ! WB97X-D3 6-31G(d) VerySlowConv
|  2> ! KDIIS NOSOSCF
|  3> %base "Scan_18"
|  4>
|  5> %scf
|  6> maxiter 999
|  7> end
|  8>
|  9> * xyz 0 1
| 10> C         -1.192077378254    1.613610000000   -0.000000000000
| 11> O          0.933037378254    1.613610000000    0.000000000000
| 12> **                         ****END OF INPUT****

CARTESIAN COORDINATES (ANGSTROEM)
---------------------------------
  C     -1.192077    1.613610   -0.000000
  O      0.933037    1.613610    0.000000

 Total Charge           Charge          ....    0
 Multiplicity           Mult            ....    1
 Number of Electrons    NEL             ....   14
 Basis Dimension        Dim             ....   28

ORBITAL ENERGIES
----------------

  NO   OCC          E(Eh)            E(eV)
   0   2.0000     -19.316692      -525.6339
   1   2.0000     -10.570473      -287.6372
   2   2.0000      -0.986830       -26.8530
   3   2.0000      -0.724946       -19.7268
   4   2.0000      -0.412542       -11.2258
   5   2.0000      -0.379455       -10.3255
   6   2.0000      -0.379455       -10.3255
   7   0.0000      -0.113290        -3.0828
   8   0.0000      -0.113290        -3.0828
   9   0.0000      -0.037710        -1.0261
  10   0.0000       0.584010        15.8917
  11   0.0000       0.584010        15.8917

MULLIKEN ATOMIC CHARGES
-----------------------
   0 C :    0.313010
   1 O :   -0.313010
Sum of atomic charges:   -0.0000000

LOEWDIN ATOMIC CHARGES
----------------------
   0 C :    0.295150
   1 O :   -0.295150

  Mayer bond orders larger than 0.1
B(  0-C ,  1-O ) :   2.2014

Dispersion correction           -0.000020128
FINAL SINGLE POINT ENERGY      -112.847814516405

DIPOLE MOMENT
-------------
                                X             Y             Z
Electronic contribution:     -1.12689      -0.00000      -0.00000
Nuclear contribution   :      0.01348      -0.00000       0.00000
                        -----------------------------------------
Total Dipole Moment    :     -1.11341      -0.00000      -0.00000
                        -----------------------------------------
Magnitude (a.u.)       :      1.11341
Magnitude (Debye)      :      2.83006

                             ****ORCA TERMINATED NORMALLY****
TOTAL RUN TIME: 0 days 0 hours 0 minutes 6 seconds 69 msec
