                         Program Version 4.0.0.2 - RELEASE -
|  1> ! WB97X-D3 6-31G(d) VerySlowConv
|  2> ! KDIIS NOSOSCF
|  3> %base "Scan_19"
|  4>
|  5> %scf
|  6> maxiter 999
|  7> end
|  8>
|  9> * xyz 0 1
| 10> C         -1.256710277904    1.613610000000    0.000000000000
| 11> O          0.997670277904    1.613610000000    0.000000000000
| 12> **                         ****END OF INPUT****

CARTESIAN COORDINATES (ANGSTROEM)
---------------------------------
  C     -1.256710    1.613610    0.000000
  O      0.997670    1.613610    0.000000

 Total Charge           Charge          ....    0
 Multiplicity           Mult            ....    1
 Number of Electrons    NEL             ....   14
 Basis Dimension        Dim             ....   28

ORBITAL ENERGIES
----------------

  NO   OCC          E(Eh)            E(eV)
   0   2.0000     -19.306715      -525.3624
   1   2.0000     -10.571823      -287.6739
   2   2.0000      -0.974407       -26.5149
   3   2.0000      -0.727952       -19.8086
   4   2.0000      -0.397971       -10.8293
   5   2.0000      -0.369200       -10.0464
   6   2.0000      -0.369200       -10.0464
   7   0.0000      -0.118245        -3.2176
   8   0.0000      -0.118245        -3.2176
   9   0.0000      -0.057484        -1.5642
  10   0.0000       0.580672        15.8009
  11   0.0000       0.580672        15.8009

MULLIKEN ATOMIC CHARGES
-----------------------
   0 C :    0.302452
   1 O :   -0.302452
Sum of atomic charges:   -0.0000000

LOEWDIN ATOMIC CHARGES
----------------------
   0 C :    0.297051
   1 O :   -0.297051

  Mayer bond orders larger than 0.1
B(  0-C ,  1-O ) :   1.9819

Dispersion correction           -0.000032272
FINAL SINGLE POINT ENERGY      -112.809567975241

DIPOLE MOMENT
-------------
                                X             Y             Z
Electronic contribution:     -1.21989      -0.00000       0.00000
Nuclear contribution   :      0.01430      -0.00000       0.00000
                        -----------------------------------------
Total Dipole Moment    :     -1.20559      -0.00000       0.00000
                        -----------------------------------------
Magnitude (a.u.)       :      1.20559
Magnitude (Debye)      :      3.06438

                             ****ORCA TERMINATED NORMALLY****
TOTAL RUN TIME: 0 days 0 hours 0 minutes 10 seconds 751 msec
