                         Program Version 4.0.0.2 - RELEASE -
|  1> ! WB97X-D3 6-31G(d) VerySlowConv
|  2> ! KDIIS NOSOSCF
|  3> %base "Scan_2"
|  4>
|  5> %scf
|  6> maxiter 999
|  7> end
|  8>
|  9> * xyz 0 1
| 10> C         -0.638903752259    1.613610000000   -0.000000000000
| 11> O          0.379863752259    1.613610000000   -0.000000000000
| 12> **                         ****END OF INPUT****

CARTESIAN COORDINATES (ANGSTROEM)
---------------------------------
  C     -0.638904    1.613610   -0.000000
  O      0.379864    1.613610   -0.000000

 Total Charge           Charge          ....    0
 Multiplicity           Mult            ....    1
 Number of Electrons    NEL             ....   14
 Basis Dimension        Dim             ....   28

ORBITAL ENERGIES
----------------

  NO   OCC          E(Eh)            E(eV)
   0   2.0000     -19.353318      -526.6306
   1   2.0000     -10.363955      -282.0176
   2   2.0000      -1.339063       -36.4378
   3   2.0000      -0.674431       -18.3522
   4   2.0000      -0.612232       -16.6597
   5   2.0000      -0.612232       -16.6597
   6   2.0000      -0.457482       -12.4487
   7   0.0000       0.125363         3.4113
   8   0.0000       0.125363         3.4113
   9   0.0000       0.368512        10.0277
  10   0.0000       0.614660        16.7258
  11   0.0000       0.614660        16.7258

MULLIKEN ATOMIC CHARGES
-----------------------
   0 C :    0.056434
   1 O :   -0.056434
Sum of atomic charges:    0.0000000

LOEWDIN ATOMIC CHARGES
----------------------
   0 C :   -0.099005
   1 O :    0.099005

  Mayer bond orders larger than 0.1
B(  0-C ,  1-O ) :   2.4833

Dispersion correction           -0.000000048
FINAL SINGLE POINT ENERGY      -113.232966247838

DIPOLE MOMENT
-------------
                                X             Y             Z
Electronic contribution:      0.16672       0.00000      -0.00000
Nuclear contribution   :      0.00646      -0.00000       0.00000
                        -----------------------------------------
Total Dipole Moment    :      0.17318       0.00000      -0.00000
                        -----------------------------------------
Magnitude (a.u.)       :      0.17318
Magnitude (Debye)      :      0.44018

                             ****ORCA TERMINATED NORMALLY****
TOTAL RUN TIME: 0 days 0 hours 0 minutes 12 seconds 878 msec
