                         Program Version 4.0.0.2 - RELEASE -
|  1> ! WB97X-D3 6-31G(d) VerySlowConv
|  2> ! KDIIS NOSOSCF
|  3> %base "Scan_20"
|  4>
|  5> %scf
|  6> maxiter 999
|  7> end
|  8>
|  9> * xyz 0 1
| 10> C         -1.319184116644    1.613610000000    0.000000000000
| 11> O          1.060144116644    1.613610000000    0.000000000000
| 12> **                         ****END OF INPUT****

CARTESIAN COORDINATES (ANGSTROEM)
---------------------------------
  C     -1.319184    1.613610    0.000000
  O      1.060144    1.613610    0.000000

 Total Charge           Charge          ....    0
 Multiplicity           Mult            ....    1
 Number of Electrons    NEL             ....   14
 Basis Dimension        Dim             ....   28

ORBITAL ENERGIES
----------------

  NO   OCC          E(Eh)            E(eV)
   0   2.0000     -19.294425      -525.0280
   1   2.0000     -10.564769      -287.4820
   2   2.0000      -0.962443       -26.1894
   3   2.0000      -0.725847       -19.7513
   4   2.0000      -0.385541       -10.4911
   5   2.0000      -0.361562        -9.8386
   6   2.0000      -0.361562        -9.8386
   7   0.0000      -0.115714        -3.1487
   8   0.0000      -0.115714        -3.1487
   9   0.0000      -0.065674        -1.7871
  10   0.0000       0.582294        15.8450
  11   0.0000       0.582294        15.8450

MULLIKEN ATOMIC CHARGES
-----------------------
   0 C :    0.291138
   1 O :   -0.291138
Sum of atomic charges:   -0.0000000

LOEWDIN ATOMIC CHARGES
----------------------
   0 C :    0.295385
   1 O :   -0.295385

  Mayer bond orders larger than 0.1
B(  0-C ,  1-O ) :   1.4636

Dispersion correction           -0.000049430
FINAL SINGLE POINT ENERGY      -112.780433143584

DIPOLE MOMENT
-------------
                                X             Y             Z
Electronic contribution:     -1.28442       0.00000       0.00000
Nuclear contribution   :      0.01509      -0.00000       0.00000
                        -----------------------------------------
Total Dipole Moment    :     -1.26933       0.00000       0.00000
                        -----------------------------------------
Magnitude (a.u.)       :      1.26933
Magnitude (Debye)      :      3.22639

                             ****ORCA TERMINATED NORMALLY****
TOTAL RUN TIME: 0 days 0 hours 0 minutes 11 seconds 969 msec
