                         Program Version 4.0.0.2 - RELEASE -
|  1> ! WB97X-D3 6-31G(d) VerySlowConv
|  2> ! KDIIS NOSOSCF
|  3> %base "Scan_21"
|  4>
|  5> %scf
|  6> maxiter 999
|  7> end
|  8>
|  9> * xyz 0 1
| 10> C         -1.379645453202    1.613610000000    0.000000000000
| 11> O          1.120605453202    1.613610000000    0.000000000000
| 12> **                         ****END OF INPUT****

CARTESIAN COORDINATES (ANGSTROEM)
---------------------------------
  C     -1.379645    1.613610    0.000000
  O      1.120605    1.613610    0.000000

 Total Charge           Charge          ....    0
 Multiplicity           Mult            ....    1
 Number of Electrons    NEL             ....   14
 Basis Dimension        Dim             ....   28

ORBITAL ENERGIES
----------------

  NO   OCC          E(Eh)            E(eV)
   0   2.0000     -19.287029      -524.8267
   1   2.0000     -10.552673      -287.1528
   2   2.0000      -0.955723       -26.0065
   3   2.0000      -0.720203       -19.5977
   4   2.0000      -0.376718       -10.2510
   5   2.0000      -0.358997        -9.7688
   6   2.0000      -0.358997        -9.7688
   7   0.0000      -0.109258        -2.9731
   8   0.0000      -0.109258        -2.9731
   9   0.0000      -0.068576        -1.8660
  10   0.0000       0.586980        15.9725
  11   0.0000       0.586980        15.9725

MULLIKEN ATOMIC CHARGES
-----------------------
   0 C :    0.275905
   1 O :   -0.275905
Sum of atomic charges:   -0.0000000

LOEWDIN ATOMIC CHARGES
----------------------
   0 C :    0.283284
   1 O :   -0.283284

  Mayer bond orders larger than 0.1
B(  0-C ,  1-O ) :   0.9539

Dispersion correction           -0.000072611
FINAL SINGLE POINT ENERGY      -112.760801043033

DIPOLE MOMENT
-------------
                                X             Y             Z
Electronic contribution:     -1.30363       0.00000      -0.00000
Nuclear contribution   :      0.01586      -0.00000       0.00000
                        -----------------------------------------
Total Dipole Moment    :     -1.28777       0.00000      -0.00000
                        -----------------------------------------
Magnitude (a.u.)       :      1.28777
Magnitude (Debye)      :      3.27325

                             ****ORCA TERMINATED NORMALLY****
TOTAL RUN TIME: 0 days 0 hours 0 minutes 20 seconds 261 msec
