                         Program Version 4.0.0.2 - RELEASE -
|  1> ! WB97X-D3 6-31G(d) VerySlowConv
|  2> ! KDIIS NOSOSCF
|  3> %base "Scan_22"
|  4>
|  5> %scf
|  6> maxiter 999
|  7> end
|  8>
|  9> * xyz 0 1
| 10> C         -1.438012142634    1.613610000000    0.000000000000
| 11> O          1.178972142633    1.613610000000   -0.000000000000
| 12> **                         ****END OF INPUT****

CARTESIAN COORDINATES (ANGSTROEM)
---------------------------------
  C     -1.438012    1.613610    0.000000
  O      1.178972    1.613610   -0.000000

 Total Charge           Charge          ....    0
 Multiplicity           Mult            ....    1
 Number of Electrons    NEL             ....   14
 Basis Dimension        Dim             ....   28

ORBITAL ENERGIES
----------------

  NO   OCC          E(Eh)            E(eV)
   0   2.0000     -19.287103      -524.8287
   1   2.0000     -10.541652      -286.8529
   2   2.0000      -0.955508       -26.0007
   3   2.0000      -0.714476       -19.4419
   4   2.0000      -0.369546       -10.0559
   5   2.0000      -0.360975        -9.8226
   6   2.0000      -0.360975        -9.8226
   7   0.0000      -0.103498        -2.8163
   8   0.0000      -0.103498        -2.8163
   9   0.0000      -0.073715        -2.0059
  10   0.0000       0.591394        16.0926
  11   0.0000       0.591394        16.0926

MULLIKEN ATOMIC CHARGES
-----------------------
   0 C :    0.257393
   1 O :   -0.257393
Sum of atomic charges:    0.0000000

LOEWDIN ATOMIC CHARGES
----------------------
   0 C :    0.264076
   1 O :   -0.264076

  Mayer bond orders larger than 0.1
B(  0-C ,  1-O ) :   0.6733

Dispersion correction           -0.000102168
FINAL SINGLE POINT ENERGY      -112.747673781843

DIPOLE MOMENT
-------------
                                X             Y             Z
Electronic contribution:     -1.28558       0.00000       0.00000
Nuclear contribution   :      0.01660      -0.00000       0.00000
                        -----------------------------------------
Total Dipole Moment    :     -1.26899       0.00000       0.00000
                        -----------------------------------------
Magnitude (a.u.)       :      1.26899
Magnitude (Debye)      :      3.22551

                             ****ORCA TERMINATED NORMALLY****
TOTAL RUN TIME: 0 days 0 hours 0 minutes 9 seconds 652 msec
