                         Program Version 4.0.0.2 - RELEASE -
|  1> ! WB97X-D3 6-31G(d) VerySlowConv
|  2> ! KDIIS NOSOSCF
|  3> %base "Scan_23"
|  4>
|  5> %scf
|  6> maxiter 999
|  7> end
|  8>
|  9> * xyz 0 1
| 10> C         -1.494403672136    1.613610000000    0.000000000000
| 11> O          1.235363672136    1.613610000000    0.000000000000
| 12> **                         ****END OF INPUT****

CARTESIAN COORDINATES (ANGSTROEM)
---------------------------------
  C     -1.494404    1.613610    0.000000
  O      1.235364    1.613610    0.000000

 Total Charge           Charge          ....    0
 Multiplicity           Mult            ....    1
 Number of Electrons    NEL             ....   14
 Basis Dimension        Dim             ....   28

ORBITAL ENERGIES
----------------

  NO   OCC          E(Eh)            E(eV)
   0   2.0000     -19.291657      -524.9527
   1   2.0000     -10.531858      -286.5864
   2   2.0000      -0.959123       -26.0991
   3   2.0000      -0.708871       -19.2894
   4   2.0000      -0.365673        -9.9505
   5   2.0000      -0.365673        -9.9505
   6   2.0000      -0.363017        -9.8782
   7   0.0000      -0.098245        -2.6734
   8   0.0000      -0.098245        -2.6734
   9   0.0000      -0.080440        -2.1889
  10   0.0000       0.595563        16.2061
  11   0.0000       0.595563        16.2061

MULLIKEN ATOMIC CHARGES
-----------------------
   0 C :    0.236169
   1 O :   -0.236169
Sum of atomic charges:    0.0000000

LOEWDIN ATOMIC CHARGES
----------------------
   0 C :    0.241403
   1 O :   -0.241403

  Mayer bond orders larger than 0.1
B(  0-C ,  1-O ) :   0.5248

Dispersion correction           -0.000137266
FINAL SINGLE POINT ENERGY      -112.738298574400

DIPOLE MOMENT
-------------
                                X             Y             Z
Electronic contribution:     -1.24051       0.00000       0.00000
Nuclear contribution   :      0.01731      -0.00000       0.00000
                        -----------------------------------------
Total Dipole Moment    :     -1.22320       0.00000       0.00000
                        -----------------------------------------
Magnitude (a.u.)       :      1.22320
Magnitude (Debye)      :      3.10912

                             ****ORCA TERMINATED NORMALLY****
TOTAL RUN TIME: 0 days 0 hours 0 minutes 13 seconds 57 msec
