                         Program Version 4.0.0.2 - RELEASE -
|  1> ! WB97X-D3 6-31G(d) VerySlowConv
|  2> ! KDIIS NOSOSCF
|  3> %base "Scan_24"
|  4>
|  5> %scf
|  6> maxiter 999
|  7> end
|  8>
|  9> * xyz 0 1
| 10> C         -1.549161826712    1.613610000000    0.000000000000
| 11> O          1.290121826712    1.613610000000    0.000000000000
| 12> **                         ****END OF INPUT****

CARTESIAN COORDINATES (ANGSTROEM)
---------------------------------
  C     -1.549162    1.613610    0.000000
  O      1.290122    1.613610    0.000000

 Total Charge           Charge          ....    0
 Multiplicity           Mult            ....    1
 Number of Electrons    NEL             ....   14
 Basis Dimension        Dim             ....   28

ORBITAL ENERGIES
----------------

  NO   OCC          E(Eh)            E(eV)
   0   2.0000     -19.298014      -525.1257
   1   2.0000     -10.522993      -286.3452
   2   2.0000      -0.964447       -26.2439
   3   2.0000      -0.703436       -19.1415
   4   2.0000      -0.371500       -10.1090
   5   2.0000      -0.371500       -10.1090
   6   2.0000      -0.356901        -9.7118
   7   0.0000      -0.093300        -2.5388
   8   0.0000      -0.093300        -2.5388
   9   0.0000      -0.087625        -2.3844
  10   0.0000       0.599600        16.3160
  11   0.0000       0.599600        16.3160

MULLIKEN ATOMIC CHARGES
-----------------------
   0 C :    0.214784
   1 O :   -0.214784
Sum of atomic charges:    0.0000000

LOEWDIN ATOMIC CHARGES
----------------------
   0 C :    0.218621
   1 O :   -0.218621

  Mayer bond orders larger than 0.1
B(  0-C ,  1-O ) :   0.4385

Dispersion correction           -0.000175247
FINAL SINGLE POINT ENERGY      -112.731186210917

DIPOLE MOMENT
-------------
                                X             Y             Z
Electronic contribution:     -1.18171      -0.00000       0.00000
Nuclear contribution   :      0.01801      -0.00000       0.00000
                        -----------------------------------------
Total Dipole Moment    :     -1.16371      -0.00000       0.00000
                        -----------------------------------------
Magnitude (a.u.)       :      1.16371
Magnitude (Debye)      :      2.95791

                             ****ORCA TERMINATED NORMALLY****
TOTAL RUN TIME: 0 days 0 hours 1 minutes 32 seconds 234 msec
