                         Program Version 4.0.0.2 - RELEASE -
|  1> ! WB97X-D3 6-31G(d) VerySlowConv
|  2> ! KDIIS NOSOSCF
|  3> %base "Scan_25"
|  4>
|  5> %scf
|  6> maxiter 1999
|  7> end
|  8>
|  9> * xyz 0 1
| 10> C         -1.602698599063    1.613610000000    0.000000000000
| 11> O          1.343658599063    1.613610000000    0.000000000000
| 12> *
| 13>
| 14>                          ****END OF INPUT****

CARTESIAN COORDINATES (ANGSTROEM)
---------------------------------
  C     -1.602699    1.613610    0.000000
  O      1.343659    1.613610    0.000000

 Total Charge           Charge          ....    0
 Multiplicity           Mult            ....    1
 Number of Electrons    NEL             ....   14
 Basis Dimension        Dim             ....   28

ORBITAL ENERGIES
----------------

  NO   OCC          E(Eh)            E(eV)
   0   2.0000     -19.305169      -525.3204
   1   2.0000     -10.514612      -286.1171
   2   2.0000      -0.970524       -26.4093
   3   2.0000      -0.698095       -18.9961
   4   2.0000      -0.377721       -10.2783
   5   2.0000      -0.377720       -10.2783
   6   2.0000      -0.351007        -9.5514
   7   0.0000      -0.094966        -2.5842
   8   0.0000      -0.088516        -2.4086
   9   0.0000      -0.088515        -2.4086
  10   0.0000       0.598363        16.2823
  11   0.0000       0.603619        16.4253

MULLIKEN ATOMIC CHARGES
-----------------------
   0 C :    0.194715
   1 O :   -0.194715
Sum of atomic charges:   -0.0000000

LOEWDIN ATOMIC CHARGES
----------------------
   0 C :    0.197368
   1 O :   -0.197368

  Mayer bond orders larger than 0.1
B(  0-C ,  1-O ) :   0.3814

Dispersion correction           -0.000211329
FINAL SINGLE POINT ENERGY      -112.725488040208

DIPOLE MOMENT
-------------
                                X             Y             Z
Electronic contribution:     -1.11690      -0.00005      -0.00005
Nuclear contribution   :      0.01869      -0.00000       0.00000
                        -----------------------------------------
Total Dipole Moment    :     -1.09821      -0.00005      -0.00005
                        -----------------------------------------
Magnitude (a.u.)       :      1.09821
Magnitude (Debye)      :      2.79143

                             ****ORCA TERMINATED NORMALLY****
TOTAL RUN TIME: 0 days 0 hours 5 minutes 5 seconds 525 msec
