                         Program Version 4.0.0.2 - RELEASE -
|  1> ! WB97X-D3 6-31G(d) VerySlowConv
|  2> ! KDIIS NOSOSCF
|  3> %base "Scan_26"
|  4>
|  5> %scf
|  6> maxiter 999
|  7> end
|  8>
|  9> * xyz 0 1
| 10> C         -1.655380891073    1.613610000000    0.000000000000
| 11> O          1.396340891073    1.613610000000    0.000000000000
| 12> **                         ****END OF INPUT****

CARTESIAN COORDINATES (ANGSTROEM)
---------------------------------
  C     -1.655381    1.613610    0.000000
  O      1.396341    1.613610    0.000000

 Total Charge           Charge          ....    0
 Multiplicity           Mult            ....    1
 Number of Electrons    NEL             ....   14
 Basis Dimension        Dim             ....   28

ORBITAL ENERGIES
----------------

  NO   OCC          E(Eh)            E(eV)
   0   2.0000     -19.290784      -524.9289
   1   2.0000     -10.575432      -287.7721
   2   2.0000      -0.959269       -26.1030
   3   2.0000      -0.740462       -20.1490
   4   2.0000      -0.354512        -9.6468
   5   2.0000      -0.329571        -8.9681
   6   2.0000      -0.329560        -8.9678
   7   0.0000      -0.159651        -4.3443
   8   0.0000      -0.159642        -4.3441
   9   0.0000      -0.130194        -3.5428
  10   0.0000       0.566150        15.4057
  11   0.0000       0.566151        15.4057

MULLIKEN ATOMIC CHARGES
-----------------------
   0 C :    0.294339
   1 O :   -0.294339
Sum of atomic charges:   -0.0000000

LOEWDIN ATOMIC CHARGES
----------------------
   0 C :    0.292076
   1 O :   -0.292076

  Mayer bond orders larger than 0.1
B(  0-C ,  1-O ) :   2.3996

Dispersion correction           -0.000239629
FINAL SINGLE POINT ENERGY      -112.638789606392

DIPOLE MOMENT
-------------
                                X             Y             Z
Electronic contribution:     -1.70281      -0.00000       0.00000
Nuclear contribution   :      0.01935      -0.00000       0.00000
                        -----------------------------------------
Total Dipole Moment    :     -1.68346      -0.00000       0.00000
                        -----------------------------------------
Magnitude (a.u.)       :      1.68346
Magnitude (Debye)      :      4.27901

                             ****ORCA TERMINATED NORMALLY****
TOTAL RUN TIME: 0 days 0 hours 0 minutes 16 seconds 533 msec
