                         Program Version 4.0.0.2 - RELEASE -
|  1> ! WB97X-D3 6-31G(d) VerySlowConv
|  2> ! KDIIS NOSOSCF
|  3> %base "Scan_27"
|  4>
|  5> %scf
|  6> maxiter 999
|  7> end
|  8>
|  9> * xyz 0 1
| 10> C         -1.707490477204    1.613610000000    0.000000000000
| 11> O          1.448450477204    1.613610000000    0.000000000000
| 12> **                         ****END OF INPUT****

CARTESIAN COORDINATES (ANGSTROEM)
---------------------------------
  C     -1.707490    1.613610    0.000000
  O      1.448450    1.613610    0.000000

 Total Charge           Charge          ....    0
 Multiplicity           Mult            ....    1
 Number of Electrons    NEL             ....   14
 Basis Dimension        Dim             ....   28

ORBITAL ENERGIES
----------------

  NO   OCC          E(Eh)            E(eV)
   0   2.0000     -19.286935      -524.8242
   1   2.0000     -10.576190      -287.7928
   2   2.0000      -0.956077       -26.0162
   3   2.0000      -0.742356       -20.2005
   4   2.0000      -0.347191        -9.4475
   5   2.0000      -0.326177        -8.8757
   6   2.0000      -0.326177        -8.8757
   7   0.0000      -0.161889        -4.4052
   8   0.0000      -0.161889        -4.4052
   9   0.0000      -0.137192        -3.7332
  10   0.0000       0.564274        15.3547
  11   0.0000       0.564855        15.3705

MULLIKEN ATOMIC CHARGES
-----------------------
   0 C :    0.295944
   1 O :   -0.295944
Sum of atomic charges:   -0.0000000

LOEWDIN ATOMIC CHARGES
----------------------
   0 C :    0.294561
   1 O :   -0.294561

  Mayer bond orders larger than 0.1
B(  0-C ,  1-O ) :   2.4208

Dispersion correction           -0.000255795
FINAL SINGLE POINT ENERGY      -112.625835013466

DIPOLE MOMENT
-------------
                                X             Y             Z
Electronic contribution:     -1.77055       0.00000      -0.00000
Nuclear contribution   :      0.02001      -0.00000       0.00000
                        -----------------------------------------
Total Dipole Moment    :     -1.75053       0.00000      -0.00000
                        -----------------------------------------
Magnitude (a.u.)       :      1.75053
Magnitude (Debye)      :      4.44950

                             ****ORCA TERMINATED NORMALLY****
TOTAL RUN TIME: 0 days 0 hours 0 minutes 8 seconds 981 msec
