                         Program Version 4.0.0.2 - RELEASE -
|  1> ! WB97X-D3 6-31G(d) VerySlowConv
|  2> ! KDIIS NOSOSCF
|  3> %base "Scan_28"
|  4>
|  5> %scf
|  6> maxiter 999
|  7> end
|  8>
|  9> * xyz 0 1
| 10> C         -1.759227535940    1.613610000000    0.000000000000
| 11> O          1.500187535940    1.613610000000    0.000000000000
| 12> **                         ****END OF INPUT****

CARTESIAN COORDINATES (ANGSTROEM)
---------------------------------
  C     -1.759228    1.613610    0.000000
  O      1.500188    1.613610    0.000000

 Total Charge           Charge          ....    0
 Multiplicity           Mult            ....    1
 Number of Electrons    NEL             ....   14
 Basis Dimension        Dim             ....   28

ORBITAL ENERGIES
----------------

  NO   OCC          E(Eh)            E(eV)
   0   2.0000     -19.283405      -524.7281
   1   2.0000     -10.576017      -287.7881
   2   2.0000      -0.953391       -25.9431
   3   2.0000      -0.743528       -20.2324
   4   2.0000      -0.341066        -9.2809
   5   2.0000      -0.322860        -8.7855
   6   2.0000      -0.322860        -8.7855
   7   0.0000      -0.163830        -4.4580
   8   0.0000      -0.163830        -4.4580
   9   0.0000      -0.142602        -3.8804
  10   0.0000       0.561544        15.2804
  11   0.0000       0.564012        15.3476

MULLIKEN ATOMIC CHARGES
-----------------------
   0 C :    0.297103
   1 O :   -0.297103
Sum of atomic charges:   -0.0000000

LOEWDIN ATOMIC CHARGES
----------------------
   0 C :    0.296241
   1 O :   -0.296241

  Mayer bond orders larger than 0.1
B(  0-C ,  1-O ) :   2.4286

Dispersion correction           -0.000259357
FINAL SINGLE POINT ENERGY      -112.613949112700

DIPOLE MOMENT
-------------
                                X             Y             Z
Electronic contribution:     -1.83359      -0.00000       0.00000
Nuclear contribution   :      0.02067      -0.00000       0.00000
                        -----------------------------------------
Total Dipole Moment    :     -1.81292      -0.00000       0.00000
                        -----------------------------------------
Magnitude (a.u.)       :      1.81292
Magnitude (Debye)      :      4.60808

                             ****ORCA TERMINATED NORMALLY****
TOTAL RUN TIME: 0 days 0 hours 0 minutes 10 seconds 62 msec
