                         Program Version 4.0.0.2 - RELEASE -
|  1> ! WB97X-D3 6-31G(d) VerySlowConv
|  2> ! KDIIS NOSOSCF
|  3> %base "Scan_29"
|  4>
|  5> %scf
|  6> maxiter 999
|  7> end
|  8>
|  9> * xyz 0 1
| 10> C         -1.810728066893    1.613610000000    0.000000000000
| 11> O          1.551688066893    1.613610000000    0.000000000000
| 12> **                         ****END OF INPUT****

CARTESIAN COORDINATES (ANGSTROEM)
---------------------------------
  C     -1.810728    1.613610    0.000000
  O      1.551688    1.613610    0.000000

 Total Charge           Charge          ....    0
 Multiplicity           Mult            ....    1
 Number of Electrons    NEL             ....   14
 Basis Dimension        Dim             ....   28

ORBITAL ENERGIES
----------------

  NO   OCC          E(Eh)            E(eV)
   0   2.0000     -19.280143      -524.6394
   1   2.0000     -10.575426      -287.7720
   2   2.0000      -0.950986       -25.8777
   3   2.0000      -0.744342       -20.2546
   4   2.0000      -0.335586        -9.1318
   5   2.0000      -0.319690        -8.6992
   6   2.0000      -0.319690        -8.6992
   7   0.0000      -0.165545        -4.5047
   8   0.0000      -0.165545        -4.5047
   9   0.0000      -0.147127        -4.0035
  10   0.0000       0.560185        15.2434
  11   0.0000       0.563379        15.3303

MULLIKEN ATOMIC CHARGES
-----------------------
   0 C :    0.298064
   1 O :   -0.298064
Sum of atomic charges:   -0.0000000

LOEWDIN ATOMIC CHARGES
----------------------
   0 C :    0.297511
   1 O :   -0.297511

  Mayer bond orders larger than 0.1
B(  0-C ,  1-O ) :   2.4322

Dispersion correction           -0.000253412
FINAL SINGLE POINT ENERGY      -112.603067423432

DIPOLE MOMENT
-------------
                                X             Y             Z
Electronic contribution:     -1.89452       0.00000       0.00000
Nuclear contribution   :      0.02132      -0.00000       0.00000
                        -----------------------------------------
Total Dipole Moment    :     -1.87320       0.00000       0.00000
                        -----------------------------------------
Magnitude (a.u.)       :      1.87320
Magnitude (Debye)      :      4.76130

                             ****ORCA TERMINATED NORMALLY****
TOTAL RUN TIME: 0 days 0 hours 0 minutes 9 seconds 40 msec
