                         Program Version 4.0.0.2 - RELEASE -
|  1> ! WB97X-D3 6-31G(d) VerySlowConv
|  2> ! KDIIS NOSOSCF
|  3> %base "Scan_3"
|  4>
|  5> %scf
|  6> maxiter 999
|  7> end
|  8>
|  9> * xyz 0 1
| 10> C         -0.647249393779    1.613610000000   -0.000000000000
| 11> O          0.388209393779    1.613610000000   -0.000000000000
| 12> **                         ****END OF INPUT****

CARTESIAN COORDINATES (ANGSTROEM)
---------------------------------
  C     -0.647249    1.613610   -0.000000
  O      0.388209    1.613610   -0.000000

 Total Charge           Charge          ....    0
 Multiplicity           Mult            ....    1
 Number of Electrons    NEL             ....   14
 Basis Dimension        Dim             ....   28

ORBITAL ENERGIES
----------------

  NO   OCC          E(Eh)            E(eV)
   0   2.0000     -19.354390      -526.6597
   1   2.0000     -10.369677      -282.1733
   2   2.0000      -1.329506       -36.1777
   3   2.0000      -0.674391       -18.3511
   4   2.0000      -0.605333       -16.4719
   5   2.0000      -0.605333       -16.4719
   6   2.0000      -0.459645       -12.5076
   7   0.0000       0.117470         3.1965
   8   0.0000       0.117470         3.1965
   9   0.0000       0.367416         9.9979
  10   0.0000       0.615403        16.7460
  11   0.0000       0.615403        16.7460

MULLIKEN ATOMIC CHARGES
-----------------------
   0 C :    0.073763
   1 O :   -0.073763
Sum of atomic charges:    0.0000000

LOEWDIN ATOMIC CHARGES
----------------------
   0 C :   -0.084708
   1 O :    0.084708

  Mayer bond orders larger than 0.1
B(  0-C ,  1-O ) :   2.4713

Dispersion correction           -0.000000055
FINAL SINGLE POINT ENERGY      -113.245404425081

DIPOLE MOMENT
-------------
                                X             Y             Z
Electronic contribution:      0.14386       0.00000      -0.00000
Nuclear contribution   :      0.00657      -0.00000       0.00000
                        -----------------------------------------
Total Dipole Moment    :      0.15043       0.00000      -0.00000
                        -----------------------------------------
Magnitude (a.u.)       :      0.15043
Magnitude (Debye)      :      0.38235

                             ****ORCA TERMINATED NORMALLY****
TOTAL RUN TIME: 0 days 0 hours 0 minutes 9 seconds 793 msec
