                         Program Version 4.0.0.2 - RELEASE -
|  1> ! WB97X-D3 6-31G(d) VerySlowConv
|  2> ! KDIIS NOSOSCF
|  3> %base "Scan_30"
|  4>
|  5> %scf
|  6> maxiter 999
|  7> end
|  8>
|  9> * xyz 0 1
| 10> C         -1.862081673545    1.613610000000    0.000000000000
| 11> O          1.603041673544    1.613610000000    0.000000000000
| 12> **                         ****END OF INPUT****

CARTESIAN COORDINATES (ANGSTROEM)
---------------------------------
  C     -1.862082    1.613610    0.000000
  O      1.603042    1.613610    0.000000

 Total Charge           Charge          ....    0
 Multiplicity           Mult            ....    1
 Number of Electrons    NEL             ....   14
 Basis Dimension        Dim             ....   28

ORBITAL ENERGIES
----------------

  NO   OCC          E(Eh)            E(eV)
   0   2.0000     -19.277148      -524.5579
   1   2.0000     -10.574620      -287.7500
   2   2.0000      -0.948783       -25.8177
   3   2.0000      -0.744939       -20.2708
   4   2.0000      -0.330593        -8.9959
   5   2.0000      -0.316683        -8.6174
   6   2.0000      -0.316682        -8.6174
   7   0.0000      -0.167091        -4.5468
   8   0.0000      -0.167090        -4.5468
   9   0.0000      -0.151052        -4.1103
  10   0.0000       0.559792        15.2327
  11   0.0000       0.562870        15.3165

MULLIKEN ATOMIC CHARGES
-----------------------
   0 C :    0.298842
   1 O :   -0.298842
Sum of atomic charges:   -0.0000000

LOEWDIN ATOMIC CHARGES
----------------------
   0 C :    0.298474
   1 O :   -0.298474

  Mayer bond orders larger than 0.1
B(  0-C ,  1-O ) :   2.4339

Dispersion correction           -0.000242088
FINAL SINGLE POINT ENERGY      -112.593097056987

DIPOLE MOMENT
-------------
                                X             Y             Z
Electronic contribution:     -1.95423      -0.00000       0.00000
Nuclear contribution   :      0.02198      -0.00000       0.00000
                        -----------------------------------------
Total Dipole Moment    :     -1.93226      -0.00000       0.00000
                        -----------------------------------------
Magnitude (a.u.)       :      1.93226
Magnitude (Debye)      :      4.91140

                             ****ORCA TERMINATED NORMALLY****
TOTAL RUN TIME: 0 days 0 hours 0 minutes 35 seconds 788 msec
