                         Program Version 4.0.0.2 - RELEASE -
|  1> ! WB97X-D3 6-31G(d) VerySlowConv
|  2> ! KDIIS NOSOSCF
|  3> %base "Scan_31"
|  4>
|  5> %scf
|  6> maxiter 999
|  7> end
|  8>
|  9> * xyz 0 1
| 10> C         -1.913345943611    1.613610000000    0.000000000000
| 11> O          1.654305943611    1.613610000000    0.000000000000
| 12> **                         ****END OF INPUT****

CARTESIAN COORDINATES (ANGSTROEM)
---------------------------------
  C     -1.913346    1.613610    0.000000
  O      1.654306    1.613610    0.000000

 Total Charge           Charge          ....    0
 Multiplicity           Mult            ....    1
 Number of Electrons    NEL             ....   14
 Basis Dimension        Dim             ....   28

ORBITAL ENERGIES
----------------

  NO   OCC          E(Eh)            E(eV)
   0   2.0000     -19.274370      -524.4823
   1   2.0000     -10.573713      -287.7253
   2   2.0000      -0.946759       -25.7626
   3   2.0000      -0.745390       -20.2831
   4   2.0000      -0.326030        -8.8717
   5   2.0000      -0.313835        -8.5399
   6   2.0000      -0.313831        -8.5398
   7   0.0000      -0.168505        -4.5853
   8   0.0000      -0.168502        -4.5852
   9   0.0000      -0.154510        -4.2044
  10   0.0000       0.559882        15.2352
  11   0.0000       0.562437        15.3047

MULLIKEN ATOMIC CHARGES
-----------------------
   0 C :    0.299374
   1 O :   -0.299374
Sum of atomic charges:   -0.0000000

LOEWDIN ATOMIC CHARGES
----------------------
   0 C :    0.299118
   1 O :   -0.299118

  Mayer bond orders larger than 0.1
B(  0-C ,  1-O ) :   2.4348

Dispersion correction           -0.000228359
FINAL SINGLE POINT ENERGY      -112.583977100102

DIPOLE MOMENT
-------------
                                X             Y             Z
Electronic contribution:     -2.01290      -0.00000      -0.00000
Nuclear contribution   :      0.02263      -0.00000       0.00000
                        -----------------------------------------
Total Dipole Moment    :     -1.99028      -0.00000      -0.00000
                        -----------------------------------------
Magnitude (a.u.)       :      1.99028
Magnitude (Debye)      :      5.05888

                             ****ORCA TERMINATED NORMALLY****
TOTAL RUN TIME: 0 days 0 hours 0 minutes 18 seconds 331 msec
