                         Program Version 4.0.0.2 - RELEASE -
|  1> ! WB97X-D3 6-31G(d) VerySlowConv
|  2> ! KDIIS NOSOSCF
|  3> %base "Scan_32"
|  4>
|  5> %scf
|  6> maxiter 999
|  7> end
|  8>
|  9> * xyz 0 1
| 10> C         -1.964557428599    1.613610000000    0.000000000000
| 11> O          1.705517428599    1.613610000000    0.000000000000
| 12> **                         ****END OF INPUT****

CARTESIAN COORDINATES (ANGSTROEM)
---------------------------------
  C     -1.964557    1.613610    0.000000
  O      1.705517    1.613610    0.000000

 Total Charge           Charge          ....    0
 Multiplicity           Mult            ....    1
 Number of Electrons    NEL             ....   14
 Basis Dimension        Dim             ....   28

ORBITAL ENERGIES
----------------

  NO   OCC          E(Eh)            E(eV)
   0   2.0000     -19.287214      -524.8318
   1   2.0000     -10.541454      -286.8475
   2   2.0000      -0.960960       -26.1490
   3   2.0000      -0.723476       -19.6868
   4   2.0000      -0.365632        -9.9494
   5   2.0000      -0.308330        -8.3901
   6   2.0000      -0.308330        -8.3901
   7   0.0000      -0.167298        -4.5524
   8   0.0000      -0.167298        -4.5524
   9   0.0000      -0.108411        -2.9500
  10   0.0000       0.577866        15.7245
  11   0.0000       0.577866        15.7245

MULLIKEN ATOMIC CHARGES
-----------------------
   0 C :    0.260623
   1 O :   -0.260623
Sum of atomic charges:   -0.0000000

LOEWDIN ATOMIC CHARGES
----------------------
   0 C :    0.260595
   1 O :   -0.260595

  Mayer bond orders larger than 0.1
B(  0-C ,  1-O ) :   1.9881

Dispersion correction           -0.000213540
FINAL SINGLE POINT ENERGY      -112.593778147419

DIPOLE MOMENT
-------------
                                X             Y             Z
Electronic contribution:     -1.78404       0.00000       0.00000
Nuclear contribution   :      0.02327      -0.00000       0.00000
                        -----------------------------------------
Total Dipole Moment    :     -1.76076       0.00000       0.00000
                        -----------------------------------------
Magnitude (a.u.)       :      1.76076
Magnitude (Debye)      :      4.47551

                             ****ORCA TERMINATED NORMALLY****
TOTAL RUN TIME: 0 days 0 hours 0 minutes 10 seconds 412 msec
