                         Program Version 4.0.0.2 - RELEASE -
|  1> ! WB97X-D3 6-31G(d) VerySlowConv
|  2> ! KDIIS NOSOSCF
|  3> %base "Scan_33"
|  4>
|  5> %scf
|  6> maxiter 999
|  7> end
|  8>
|  9> * xyz 0 1
| 10> C         -2.015737325736    1.613610000000   -0.000000000000
| 11> O          1.756697325735    1.613610000000    0.000000000000
| 12> **                         ****END OF INPUT****

CARTESIAN COORDINATES (ANGSTROEM)
---------------------------------
  C     -2.015737    1.613610   -0.000000
  O      1.756697    1.613610    0.000000

 Total Charge           Charge          ....    0
 Multiplicity           Mult            ....    1
 Number of Electrons    NEL             ....   14
 Basis Dimension        Dim             ....   28

ORBITAL ENERGIES
----------------

  NO   OCC          E(Eh)            E(eV)
   0   2.0000     -19.269365      -524.3461
   1   2.0000     -10.571889      -287.6757
   2   2.0000      -0.943151       -25.6645
   3   2.0000      -0.746072       -20.3016
   4   2.0000      -0.317943        -8.6517
   5   2.0000      -0.308594        -8.3973
   6   2.0000      -0.308594        -8.3973
   7   0.0000      -0.171035        -4.6541
   8   0.0000      -0.171034        -4.6541
   9   0.0000      -0.160323        -4.3626
  10   0.0000       0.560864        15.2619
  11   0.0000       0.561661        15.2836

MULLIKEN ATOMIC CHARGES
-----------------------
   0 C :    0.300076
   1 O :   -0.300076
Sum of atomic charges:   -0.0000000

LOEWDIN ATOMIC CHARGES
----------------------
   0 C :    0.299932
   1 O :   -0.299932

  Mayer bond orders larger than 0.1
B(  0-C ,  1-O ) :   2.4356

Dispersion correction           -0.000197920
FINAL SINGLE POINT ENERGY      -112.568020866965

DIPOLE MOMENT
-------------
                                X             Y             Z
Electronic contribution:     -2.12927      -0.00000       0.00000
Nuclear contribution   :      0.02392      -0.00000       0.00000
                        -----------------------------------------
Total Dipole Moment    :     -2.10535      -0.00000       0.00000
                        -----------------------------------------
Magnitude (a.u.)       :      2.10535
Magnitude (Debye)      :      5.35137

                             ****ORCA TERMINATED NORMALLY****
TOTAL RUN TIME: 0 days 0 hours 0 minutes 12 seconds 998 msec
