                         Program Version 4.0.0.2 - RELEASE -
|  1> ! WB97X-D3 6-31G(d) VerySlowConv
|  2> ! KDIIS NOSOSCF
|  3> %base "Scan_34"
|  4>
|  5> %scf
|  6> maxiter 999
|  7> end
|  8>
|  9> * xyz 0 1
| 10> C         -2.066899709329    1.613610000000   -0.000000000000
| 11> O          1.807859709329    1.613610000000    0.000000000000
| 12> **                         ****END OF INPUT****

CARTESIAN COORDINATES (ANGSTROEM)
---------------------------------
  C     -2.066900    1.613610   -0.000000
  O      1.807860    1.613610    0.000000

 Total Charge           Charge          ....    0
 Multiplicity           Mult            ....    1
 Number of Electrons    NEL             ....   14
 Basis Dimension        Dim             ....   28

ORBITAL ENERGIES
----------------

  NO   OCC          E(Eh)            E(eV)
   0   2.0000     -19.360680      -526.8309
   1   2.0000     -10.455086      -284.4974
   2   2.0000      -1.019021       -27.7290
   3   2.0000      -0.657177       -17.8827
   4   2.0000      -0.426076       -11.5941
   5   2.0000      -0.426076       -11.5941
   6   2.0000      -0.310574        -8.4512
   7   0.0000      -0.140206        -3.8152
   8   0.0000      -0.051636        -1.4051
   9   0.0000      -0.051636        -1.4051
  10   0.0000       0.624311        16.9884
  11   0.0000       0.635799        17.3010

MULLIKEN ATOMIC CHARGES
-----------------------
   0 C :    0.063181
   1 O :   -0.063181
Sum of atomic charges:   -0.0000000

LOEWDIN ATOMIC CHARGES
----------------------
   0 C :    0.063160
   1 O :   -0.063160

  Mayer bond orders larger than 0.1
B(  0-C ,  1-O ) :   0.1227

Dispersion correction           -0.000181563
FINAL SINGLE POINT ENERGY      -112.702045633587

DIPOLE MOMENT
-------------
                                X             Y             Z
Electronic contribution:     -0.49539       0.00000       0.00000
Nuclear contribution   :      0.02457      -0.00000       0.00000
                        -----------------------------------------
Total Dipole Moment    :     -0.47081       0.00000       0.00000
                        -----------------------------------------
Magnitude (a.u.)       :      0.47081
Magnitude (Debye)      :      1.19671

                             ****ORCA TERMINATED NORMALLY****
TOTAL RUN TIME: 0 days 0 hours 0 minutes 12 seconds 43 msec
