                         Program Version 4.0.0.2 - RELEASE -
|  1> ! WB97X-D3 6-31G(d) VerySlowConv
|  2> ! KDIIS NOSOSCF
|  3> %base "Scan_35"
|  4>
|  5> %scf
|  6> maxiter 999
|  7> end
|  8>
|  9> * xyz 0 1
| 10> C         -2.118052255765    1.613610000000   -0.000000000000
| 11> O          1.859012255765    1.613610000000    0.000000000000
| 12> **                         ****END OF INPUT****

CARTESIAN COORDINATES (ANGSTROEM)
---------------------------------
  C     -2.118052    1.613610   -0.000000
  O      1.859012    1.613610    0.000000

 Total Charge           Charge          ....    0
 Multiplicity           Mult            ....    1
 Number of Electrons    NEL             ....   14
 Basis Dimension        Dim             ....   28

ORBITAL ENERGIES
----------------

  NO   OCC          E(Eh)            E(eV)
   0   2.0000     -19.365600      -526.9648
   1   2.0000     -10.450296      -284.3670
   2   2.0000      -1.023222       -27.8433
   3   2.0000      -0.653689       -17.7878
   4   2.0000      -0.430268       -11.7082
   5   2.0000      -0.430268       -11.7082
   6   2.0000      -0.307468        -8.3666
   7   0.0000      -0.143572        -3.9068
   8   0.0000      -0.048474        -1.3190
   9   0.0000      -0.048474        -1.3190
  10   0.0000       0.628314        17.0973
  11   0.0000       0.638573        17.3765

MULLIKEN ATOMIC CHARGES
-----------------------
   0 C :    0.053087
   1 O :   -0.053087
Sum of atomic charges:   -0.0000000

LOEWDIN ATOMIC CHARGES
----------------------
   0 C :    0.053064
   1 O :   -0.053064

  Mayer bond orders larger than 0.1
B(  0-C ,  1-O ) :   0.1035

Dispersion correction           -0.000164729
FINAL SINGLE POINT ENERGY      -112.701096331604

DIPOLE MOMENT
-------------
                                X             Y             Z
Electronic contribution:     -0.43193       0.00000       0.00000
Nuclear contribution   :      0.02522      -0.00000       0.00000
                        -----------------------------------------
Total Dipole Moment    :     -0.40671       0.00000       0.00000
                        -----------------------------------------
Magnitude (a.u.)       :      0.40671
Magnitude (Debye)      :      1.03378

                             ****ORCA TERMINATED NORMALLY****
TOTAL RUN TIME: 0 days 0 hours 0 minutes 8 seconds 471 msec
