                         Program Version 4.0.0.2 - RELEASE -
|  1> ! WB97X-D3 6-31G(d) VerySlowConv
|  2> ! KDIIS NOSOSCF
|  3> %base "Scan_36"
|  4>
|  5> %scf
|  6> maxiter 999
|  7> end
|  8>
|  9> * xyz 0 1
| 10> C         -2.169199521302    1.613610000000   -0.000000000000
| 11> O          1.910159521302    1.613610000000   -0.000000000000
| 12> **                         ****END OF INPUT****

CARTESIAN COORDINATES (ANGSTROEM)
---------------------------------
  C     -2.169200    1.613610   -0.000000
  O      1.910160    1.613610   -0.000000

 Total Charge           Charge          ....    0
 Multiplicity           Mult            ....    1
 Number of Electrons    NEL             ....   14
 Basis Dimension        Dim             ....   28

ORBITAL ENERGIES
----------------

  NO   OCC          E(Eh)            E(eV)
   0   2.0000     -19.285589      -524.7875
   1   2.0000     -10.537873      -286.7501
   2   2.0000      -0.959663       -26.1138
   3   2.0000      -0.722811       -19.6687
   4   2.0000      -0.364006        -9.9051
   5   2.0000      -0.300493        -8.1768
   6   2.0000      -0.300487        -8.1767
   7   0.0000      -0.173258        -4.7146
   8   0.0000      -0.173257        -4.7146
   9   0.0000      -0.108791        -2.9603
  10   0.0000       0.577899        15.7254
  11   0.0000       0.577900        15.7255

MULLIKEN ATOMIC CHARGES
-----------------------
   0 C :    0.249891
   1 O :   -0.249891
Sum of atomic charges:   -0.0000000

LOEWDIN ATOMIC CHARGES
----------------------
   0 C :    0.249912
   1 O :   -0.249912

  Mayer bond orders larger than 0.1
B(  0-C ,  1-O ) :   1.9731

Dispersion correction           -0.000147902
FINAL SINGLE POINT ENERGY      -112.576309569356

DIPOLE MOMENT
-------------
                                X             Y             Z
Electronic contribution:     -1.91181      -0.00000      -0.00000
Nuclear contribution   :      0.02587      -0.00000       0.00000
                        -----------------------------------------
Total Dipole Moment    :     -1.88594      -0.00000      -0.00000
                        -----------------------------------------
Magnitude (a.u.)       :      1.88594
Magnitude (Debye)      :      4.79367

                             ****ORCA TERMINATED NORMALLY****
TOTAL RUN TIME: 0 days 0 hours 0 minutes 12 seconds 544 msec
