                         Program Version 4.0.0.2 - RELEASE -
|  1> ! WB97X-D3 6-31G(d) VerySlowConv
|  2> ! KDIIS NOSOSCF
|  3> %base "Scan_37"
|  4>
|  5> %scf
|  6> maxiter 999
|  7> end
|  8>
|  9> * xyz 0 1
| 10> C         -2.220343973425    1.613610000000   -0.000000000000
| 11> O          1.961303973424    1.613610000000   -0.000000000000
| 12> **                         ****END OF INPUT****

CARTESIAN COORDINATES (ANGSTROEM)
---------------------------------
  C     -2.220344    1.613610   -0.000000
  O      1.961304    1.613610   -0.000000

 Total Charge           Charge          ....    0
 Multiplicity           Mult            ....    1
 Number of Electrons    NEL             ....   14
 Basis Dimension        Dim             ....   28

ORBITAL ENERGIES
----------------

  NO   OCC          E(Eh)            E(eV)
   0   2.0000     -18.826394      -512.2922
   1   2.0000     -11.179024      -304.1967
   2   2.0000      -1.161835       -31.6151
   3   2.0000      -0.555538       -15.1170
   4   2.0000       0.024962         0.6792
   5   2.0000       0.024962         0.6792
   6   2.0000       0.064340         1.7508
   7   0.0000      -0.537703       -14.6316
   8   0.0000      -0.537703       -14.6316
   9   0.0000      -0.536214       -14.5911
  10   0.0000       0.208886         5.6841
  11   0.0000       0.259581         7.0636

MULLIKEN ATOMIC CHARGES
-----------------------
   0 C :    1.234163
   1 O :   -1.234163
Sum of atomic charges:   -0.0000000

LOEWDIN ATOMIC CHARGES
----------------------
   0 C :    1.237232
   1 O :   -1.237232

  Mayer bond orders larger than 0.1
B(  0-C ,  1-O ) :   0.9460

Dispersion correction           -0.000131628
FINAL SINGLE POINT ENERGY      -111.698296974131

DIPOLE MOMENT
-------------
                                X             Y             Z
Electronic contribution:     -9.59763      -0.00000       0.00000
Nuclear contribution   :      0.02652      -0.00000       0.00000
                        -----------------------------------------
Total Dipole Moment    :     -9.57111      -0.00000       0.00000
                        -----------------------------------------
Magnitude (a.u.)       :      9.57111
Magnitude (Debye)      :     24.32782

                             ****ORCA TERMINATED NORMALLY****
TOTAL RUN TIME: 0 days 0 hours 0 minutes 55 seconds 402 msec
