                         Program Version 4.0.0.2 - RELEASE -
|  1> ! WB97X-D3 6-31G(d) VerySlowConv
|  2> ! KDIIS NOSOSCF
|  3> %base "Scan_38"
|  4>
|  5> %scf
|  6> maxiter 999
|  7> end
|  8>
|  9> * xyz 0 1
| 10> C         -2.271486918673    1.613610000000   -0.000000000000
| 11> O          2.012446918672    1.613610000000   -0.000000000000
| 12> **                         ****END OF INPUT****

CARTESIAN COORDINATES (ANGSTROEM)
---------------------------------
  C     -2.271487    1.613610   -0.000000
  O      2.012447    1.613610   -0.000000

 Total Charge           Charge          ....    0
 Multiplicity           Mult            ....    1
 Number of Electrons    NEL             ....   14
 Basis Dimension        Dim             ....   28

ORBITAL ENERGIES
----------------

  NO   OCC          E(Eh)            E(eV)
   0   2.0000     -19.378394      -527.3129
   1   2.0000     -10.438166      -284.0369
   2   2.0000      -1.034160       -28.1409
   3   2.0000      -0.644740       -17.5443
   4   2.0000      -0.441172       -12.0049
   5   2.0000      -0.441172       -12.0049
   6   2.0000      -0.299684        -8.1548
   7   0.0000      -0.152145        -4.1401
   8   0.0000      -0.040326        -1.0973
   9   0.0000      -0.040326        -1.0973
  10   0.0000       0.637988        17.3605
  11   0.0000       0.645775        17.5724

MULLIKEN ATOMIC CHARGES
-----------------------
   0 C :    0.027645
   1 O :   -0.027645
Sum of atomic charges:    0.0000000

LOEWDIN ATOMIC CHARGES
----------------------
   0 C :    0.027633
   1 O :   -0.027633

Dispersion correction           -0.000116363
FINAL SINGLE POINT ENERGY      -112.699220217817

DIPOLE MOMENT
-------------
                                X             Y             Z
Electronic contribution:     -0.25746      -0.00000      -0.00000
Nuclear contribution   :      0.02717      -0.00000       0.00000
                        -----------------------------------------
Total Dipole Moment    :     -0.23029      -0.00000      -0.00000
                        -----------------------------------------
Magnitude (a.u.)       :      0.23029
Magnitude (Debye)      :      0.58535

                             ****ORCA TERMINATED NORMALLY****
TOTAL RUN TIME: 0 days 0 hours 0 minutes 26 seconds 905 msec
