                         Program Version 4.0.0.2 - RELEASE -
|  1> ! WB97X-D3 6-31G(d) VerySlowConv
|  2> ! KDIIS NOSOSCF
|  3> %base "Scan_39"
|  4>
|  5> %scf
|  6> maxiter 999
|  7> end
|  8>
|  9> * xyz 0 1
| 10> C         -2.322629030503    1.613610000000   -0.000000000000
| 11> O          2.063589030502    1.613610000000   -0.000000000000
| 12> **                         ****END OF INPUT****

CARTESIAN COORDINATES (ANGSTROEM)
---------------------------------
  C     -2.322629    1.613610   -0.000000
  O      2.063589    1.613610   -0.000000

 Total Charge           Charge          ....    0
 Multiplicity           Mult            ....    1
 Number of Electrons    NEL             ....   14
 Basis Dimension        Dim             ....   28

ORBITAL ENERGIES
----------------

  NO   OCC          E(Eh)            E(eV)
   0   2.0000     -19.259318      -524.0727
   1   2.0000     -10.568849      -287.5930
   2   2.0000      -0.935590       -25.4587
   3   2.0000      -0.747935       -20.3523
   4   2.0000      -0.300898        -8.1879
   5   2.0000      -0.296554        -8.0696
   6   2.0000      -0.296554        -8.0696
   7   0.0000      -0.177803        -4.8383
   8   0.0000      -0.177803        -4.8383
   9   0.0000      -0.172876        -4.7042
  10   0.0000       0.559347        15.2206
  11   0.0000       0.559347        15.2206

MULLIKEN ATOMIC CHARGES
-----------------------
   0 C :    0.299049
   1 O :   -0.299049
Sum of atomic charges:   -0.0000000

LOEWDIN ATOMIC CHARGES
----------------------
   0 C :    0.299013
   1 O :   -0.299013

  Mayer bond orders larger than 0.1
B(  0-C ,  1-O ) :   2.4374

Dispersion correction           -0.000102395
FINAL SINGLE POINT ENERGY      -112.533570768333

DIPOLE MOMENT
-------------
                                X             Y             Z
Electronic contribution:     -2.46902      -0.00000      -0.00000
Nuclear contribution   :      0.02782      -0.00000       0.00000
                        -----------------------------------------
Total Dipole Moment    :     -2.44121      -0.00000      -0.00000
                        -----------------------------------------
Magnitude (a.u.)       :      2.44121
Magnitude (Debye)      :      6.20506

                             ****ORCA TERMINATED NORMALLY****
TOTAL RUN TIME: 0 days 0 hours 0 minutes 22 seconds 630 msec
