                         Program Version 4.0.0.2 - RELEASE -
|  1> ! WB97X-D3 6-31G(d) VerySlowConv
|  2> ! KDIIS NOSOSCF
|  3> %base "Scan_4"
|  4>
|  5> %scf
|  6> maxiter 999
|  7> end
|  8>
|  9> * xyz 0 1
| 10> C         -0.656457651982    1.613610000000   -0.000000000000
| 11> O          0.397417651982    1.613610000000   -0.000000000000
| 12> **                         ****END OF INPUT****

CARTESIAN COORDINATES (ANGSTROEM)
---------------------------------
  C     -0.656458    1.613610   -0.000000
  O      0.397418    1.613610   -0.000000

 Total Charge           Charge          ....    0
 Multiplicity           Mult            ....    1
 Number of Electrons    NEL             ....   14
 Basis Dimension        Dim             ....   28

ORBITAL ENERGIES
----------------

  NO   OCC          E(Eh)            E(eV)
   0   2.0000     -19.355472      -526.6892
   1   2.0000     -10.376024      -282.3460
   2   2.0000      -1.318936       -35.8901
   3   2.0000      -0.674329       -18.3494
   4   2.0000      -0.597923       -16.2703
   5   2.0000      -0.597923       -16.2703
   6   2.0000      -0.461942       -12.5701
   7   0.0000       0.108972         2.9653
   8   0.0000       0.108972         2.9653
   9   0.0000       0.366115         9.9625
  10   0.0000       0.616207        16.7679
  11   0.0000       0.616207        16.7679

MULLIKEN ATOMIC CHARGES
-----------------------
   0 C :    0.092369
   1 O :   -0.092369
Sum of atomic charges:    0.0000000

LOEWDIN ATOMIC CHARGES
----------------------
   0 C :   -0.069008
   1 O :    0.069008

  Mayer bond orders larger than 0.1
B(  0-C ,  1-O ) :   2.4582

Dispersion correction           -0.000000063
FINAL SINGLE POINT ENERGY      -113.256197762367

DIPOLE MOMENT
-------------
                                X             Y             Z
Electronic contribution:      0.11845      -0.00000      -0.00000
Nuclear contribution   :      0.00668      -0.00000       0.00000
                        -----------------------------------------
Total Dipole Moment    :      0.12513      -0.00000      -0.00000
                        -----------------------------------------
Magnitude (a.u.)       :      0.12513
Magnitude (Debye)      :      0.31805

                             ****ORCA TERMINATED NORMALLY****
TOTAL RUN TIME: 0 days 0 hours 0 minutes 3 seconds 717 msec
