                         Program Version 4.0.0.2 - RELEASE -
|  1> ! WB97X-D3 6-31G(d) VerySlowConv
|  2> ! KDIIS NOSOSCF
|  3> %base "Scan_40"
|  4>
|  5> %scf
|  6> maxiter 999
|  7> end
|  8>
|  9> * xyz 0 1
| 10> C         -2.373770601099    1.613610000000   -0.000000000000
| 11> O          2.114730601099    1.613610000000   -0.000000000000
| 12> **                         ****END OF INPUT****

CARTESIAN COORDINATES (ANGSTROEM)
---------------------------------
  C     -2.373771    1.613610   -0.000000
  O      2.114731    1.613610   -0.000000

 Total Charge           Charge          ....    0
 Multiplicity           Mult            ....    1
 Number of Electrons    NEL             ....   14
 Basis Dimension        Dim             ....   28

ORBITAL ENERGIES
----------------

  NO   OCC          E(Eh)            E(eV)
   0   2.0000     -19.385199      -527.4981
   1   2.0000     -10.432093      -283.8717
   2   2.0000      -1.039927       -28.2979
   3   2.0000      -0.640147       -17.4193
   4   2.0000      -0.446936       -12.1617
   5   2.0000      -0.446936       -12.1617
   6   2.0000      -0.295797        -8.0490
   7   0.0000      -0.156593        -4.2611
   8   0.0000      -0.036131        -0.9832
   9   0.0000      -0.036131        -0.9832
  10   0.0000       0.642559        17.4849
  11   0.0000       0.649520        17.6743

MULLIKEN ATOMIC CHARGES
-----------------------
   0 C :    0.014850
   1 O :   -0.014850
Sum of atomic charges:   -0.0000000

LOEWDIN ATOMIC CHARGES
----------------------
   0 C :    0.014844
   1 O :   -0.014844

Dispersion correction           -0.000089855
FINAL SINGLE POINT ENERGY      -112.698531841630

DIPOLE MOMENT
-------------
                                X             Y             Z
Electronic contribution:     -0.16045       0.00000      -0.00000
Nuclear contribution   :      0.02847      -0.00000       0.00000
                        -----------------------------------------
Total Dipole Moment    :     -0.13198       0.00000      -0.00000
                        -----------------------------------------
Magnitude (a.u.)       :      0.13198
Magnitude (Debye)      :      0.33547

                             ****ORCA TERMINATED NORMALLY****
TOTAL RUN TIME: 0 days 0 hours 0 minutes 22 seconds 737 msec
