                         Program Version 4.0.0.2 - RELEASE -
|  1> ! WB97X-D3 6-31G(d) VerySlowConv
|  2> ! KDIIS NOSOSCF
|  3> %base "Scan_41"
|  4>
|  5> %scf
|  6> maxiter 999
|  7> end
|  8>
|  9> * xyz 0 1
| 10> C         -2.424911824998    1.613610000000   -0.000000000000
| 11> O          2.165871824998    1.613610000000   -0.000000000000
| 12> **                         ****END OF INPUT****

CARTESIAN COORDINATES (ANGSTROEM)
---------------------------------
  C     -2.424912    1.613610   -0.000000
  O      2.165872    1.613610   -0.000000

 Total Charge           Charge          ....    0
 Multiplicity           Mult            ....    1
 Number of Electrons    NEL             ....   14
 Basis Dimension        Dim             ....   28

ORBITAL ENERGIES
----------------

  NO   OCC          E(Eh)            E(eV)
   0   2.0000     -19.387933      -527.5725
   1   2.0000     -10.429731      -283.8074
   2   2.0000      -1.042233       -28.3606
   3   2.0000      -0.638331       -17.3699
   4   2.0000      -0.449252       -12.2248
   5   2.0000      -0.449252       -12.2248
   6   2.0000      -0.294276        -8.0076
   7   0.0000      -0.158344        -4.3088
   8   0.0000      -0.034472        -0.9380
   9   0.0000      -0.034472        -0.9380
  10   0.0000       0.644306        17.5325
  11   0.0000       0.651009        17.7149

MULLIKEN ATOMIC CHARGES
-----------------------
   0 C :    0.009886
   1 O :   -0.009886
Sum of atomic charges:   -0.0000000

LOEWDIN ATOMIC CHARGES
----------------------
   0 C :    0.009882
   1 O :   -0.009882

Dispersion correction           -0.000078750
FINAL SINGLE POINT ENERGY      -112.698310941384

DIPOLE MOMENT
-------------
                                X             Y             Z
Electronic contribution:     -0.12072       0.00000       0.00000
Nuclear contribution   :      0.02911      -0.00000       0.00000
                        -----------------------------------------
Total Dipole Moment    :     -0.09160       0.00000       0.00000
                        -----------------------------------------
Magnitude (a.u.)       :      0.09160
Magnitude (Debye)      :      0.23283

                             ****ORCA TERMINATED NORMALLY****
TOTAL RUN TIME: 0 days 0 hours 0 minutes 21 seconds 822 msec
