                         Program Version 4.0.0.2 - RELEASE -
|  1> ! WB97X-D3 6-31G(d) VerySlowConv
|  2> ! KDIIS NOSOSCF
|  3> %base "Scan_42"
|  4>
|  5> %scf
|  6> maxiter 999
|  7> end
|  8>
|  9> * xyz 0 1
| 10> C         -2.476052724214    1.613610000000    0.000000000000
| 11> O          2.217012724215    1.613610000000    0.000000000000
| 12> **                         ****END OF INPUT****

CARTESIAN COORDINATES (ANGSTROEM)
---------------------------------
  C     -2.476053    1.613610    0.000000
  O      2.217013    1.613610    0.000000

 Total Charge           Charge          ....    0
 Multiplicity           Mult            ....    1
 Number of Electrons    NEL             ....   14
 Basis Dimension        Dim             ....   28

ORBITAL ENERGIES
----------------

  NO   OCC          E(Eh)            E(eV)
   0   2.0000     -19.256674      -524.0007
   1   2.0000     -10.568900      -287.5944
   2   2.0000      -0.933250       -25.3950
   3   2.0000      -0.749114       -20.3844
   4   2.0000      -0.295360        -8.0371
   5   2.0000      -0.292276        -7.9532
   6   2.0000      -0.292224        -7.9518
   7   0.0000      -0.181091        -4.9277
   8   0.0000      -0.181043        -4.9264
   9   0.0000      -0.177540        -4.8311
  10   0.0000       0.558051        15.1853
  11   0.0000       0.558055        15.1854

MULLIKEN ATOMIC CHARGES
-----------------------
   0 C :    0.297889
   1 O :   -0.297889
Sum of atomic charges:   -0.0000000

LOEWDIN ATOMIC CHARGES
----------------------
   0 C :    0.297874
   1 O :   -0.297874

  Mayer bond orders larger than 0.1
B(  0-C ,  1-O ) :   2.4384

Dispersion correction           -0.000069005
FINAL SINGLE POINT ENERGY      -112.521431771987

DIPOLE MOMENT
-------------
                                X             Y             Z
Electronic contribution:     -2.63634      -0.00000       0.00001
Nuclear contribution   :      0.02976      -0.00000       0.00000
                        -----------------------------------------
Total Dipole Moment    :     -2.60658      -0.00000       0.00001
                        -----------------------------------------
Magnitude (a.u.)       :      2.60658
Magnitude (Debye)      :      6.62539

                             ****ORCA TERMINATED NORMALLY****
TOTAL RUN TIME: 0 days 0 hours 0 minutes 17 seconds 453 msec
