                         Program Version 4.0.0.2 - RELEASE -
|  1> ! WB97X-D3 6-31G(d) VerySlowConv
|  2> ! KDIIS NOSOSCF
|  3> %base "Scan_43"
|  4>
|  5> %scf
|  6> maxiter 999
|  7> end
|  8>
|  9> * xyz 0 1
| 10> C         -2.527193313060    1.613610000000    0.000000000000
| 11> O          2.268153313060    1.613610000000    0.000000000000
| 12> **                         ****END OF INPUT****

CARTESIAN COORDINATES (ANGSTROEM)
---------------------------------
  C     -2.527193    1.613610    0.000000
  O      2.268153    1.613610    0.000000

 Total Charge           Charge          ....    0
 Multiplicity           Mult            ....    1
 Number of Electrons    NEL             ....   14
 Basis Dimension        Dim             ....   28

ORBITAL ENERGIES
----------------

  NO   OCC          E(Eh)            E(eV)
   0   2.0000     -19.391681      -527.6745
   1   2.0000     -10.426541      -283.7206
   2   2.0000      -1.045430       -28.4476
   3   2.0000      -0.635859       -17.3026
   4   2.0000      -0.452450       -12.3118
   5   2.0000      -0.452450       -12.3118
   6   2.0000      -0.292191        -7.9509
   7   0.0000      -0.160770        -4.3748
   8   0.0000      -0.032206        -0.8764
   9   0.0000      -0.032206        -0.8764
  10   0.0000       0.646634        17.5958
  11   0.0000       0.653057        17.7706

MULLIKEN ATOMIC CHARGES
-----------------------
   0 C :    0.003403
   1 O :   -0.003403
Sum of atomic charges:   -0.0000000

LOEWDIN ATOMIC CHARGES
----------------------
   0 C :    0.003402
   1 O :   -0.003402

Dispersion correction           -0.000060505
FINAL SINGLE POINT ENERGY      -112.698037161588

DIPOLE MOMENT
-------------
                                X             Y             Z
Electronic contribution:     -0.06656      -0.00000       0.00000
Nuclear contribution   :      0.03041      -0.00000       0.00000
                        -----------------------------------------
Total Dipole Moment    :     -0.03615      -0.00000       0.00000
                        -----------------------------------------
Magnitude (a.u.)       :      0.03615
Magnitude (Debye)      :      0.09189

                             ****ORCA TERMINATED NORMALLY****
TOTAL RUN TIME: 0 days 0 hours 0 minutes 13 seconds 607 msec
