                         Program Version 4.0.0.2 - RELEASE -
|  1> ! WB97X-D3 6-31G(d) VerySlowConv
|  2> ! KDIIS NOSOSCF
|  3> %base "Scan_44"
|  4>
|  5> %scf
|  6> maxiter 999
|  7> end
|  8>
|  9> * xyz 0 1
| 10> C         -2.578333594583    1.613610000000    0.000000000000
| 11> O          2.319293594583    1.613610000000    0.000000000000
| 12> **                         ****END OF INPUT****

CARTESIAN COORDINATES (ANGSTROEM)
---------------------------------
  C     -2.578334    1.613610    0.000000
  O      2.319294    1.613610    0.000000

 Total Charge           Charge          ....    0
 Multiplicity           Mult            ....    1
 Number of Electrons    NEL             ....   14
 Basis Dimension        Dim             ....   28

ORBITAL ENERGIES
----------------

  NO   OCC          E(Eh)            E(eV)
   0   2.0000     -19.255080      -523.9574
   1   2.0000     -10.569105      -287.6000
   2   2.0000      -0.931951       -25.3597
   3   2.0000      -0.749875       -20.4051
   4   2.0000      -0.292254        -7.9526
   5   2.0000      -0.289741        -7.8842
   6   2.0000      -0.289738        -7.8842
   7   0.0000      -0.183071        -4.9816
   8   0.0000      -0.183068        -4.9815
   9   0.0000      -0.180245        -4.9047
  10   0.0000       0.557238        15.1632
  11   0.0000       0.557238        15.1632

MULLIKEN ATOMIC CHARGES
-----------------------
   0 C :    0.296922
   1 O :   -0.296922
Sum of atomic charges:   -0.0000000

LOEWDIN ATOMIC CHARGES
----------------------
   0 C :    0.296914
   1 O :   -0.296914

  Mayer bond orders larger than 0.1
B(  0-C ,  1-O ) :   2.4393

Dispersion correction           -0.000053117
FINAL SINGLE POINT ENERGY      -112.514563826067

DIPOLE MOMENT
-------------
                                X             Y             Z
Electronic contribution:     -2.74604      -0.00000      -0.00000
Nuclear contribution   :      0.03106      -0.00000       0.00000
                        -----------------------------------------
Total Dipole Moment    :     -2.71498      -0.00000      -0.00000
                        -----------------------------------------
Magnitude (a.u.)       :      2.71498
Magnitude (Debye)      :      6.90093

                             ****ORCA TERMINATED NORMALLY****
TOTAL RUN TIME: 0 days 0 hours 0 minutes 33 seconds 722 msec
