                         Program Version 4.0.0.2 - RELEASE -
|  1> ! WB97X-D3 6-31G(d) VerySlowConv
|  2> ! KDIIS NOSOSCF
|  3> %base "Scan_45"
|  4>
|  5> %scf
|  6> maxiter 999
|  7> end
|  8>
|  9> * xyz 0 1
| 10> C         -2.629473572017    1.613610000000    0.000000000000
| 11> O          2.370433572017    1.613610000000    0.000000000000
| 12> **                         ****END OF INPUT****

CARTESIAN COORDINATES (ANGSTROEM)
---------------------------------
  C     -2.629474    1.613610    0.000000
  O      2.370434    1.613610    0.000000

 Total Charge           Charge          ....    0
 Multiplicity           Mult            ....    1
 Number of Electrons    NEL             ....   14
 Basis Dimension        Dim             ....   28

ORBITAL ENERGIES
----------------

  NO   OCC          E(Eh)            E(eV)
   0   2.0000     -19.393360      -527.7202
   1   2.0000     -10.425145      -283.6826
   2   2.0000      -1.046930       -28.4884
   3   2.0000      -0.634755       -17.2726
   4   2.0000      -0.453930       -12.3521
   5   2.0000      -0.453930       -12.3521
   6   2.0000      -0.291225        -7.9246
   7   0.0000      -0.162021        -4.4088
   8   0.0000      -0.031191        -0.8488
   9   0.0000      -0.031191        -0.8488
  10   0.0000       0.647704        17.6249
  11   0.0000       0.653988        17.7959

MULLIKEN ATOMIC CHARGES
-----------------------
   0 C :    0.000909
   1 O :   -0.000909
Sum of atomic charges:   -0.0000000

LOEWDIN ATOMIC CHARGES
----------------------
   0 C :    0.000908
   1 O :   -0.000908

Dispersion correction           -0.000046706
FINAL SINGLE POINT ENERGY      -112.697880300787

DIPOLE MOMENT
-------------
                                X             Y             Z
Electronic contribution:     -0.04491       0.00001       0.00001
Nuclear contribution   :      0.03171      -0.00000       0.00000
                        -----------------------------------------
Total Dipole Moment    :     -0.01320       0.00001       0.00001
                        -----------------------------------------
Magnitude (a.u.)       :      0.01320
Magnitude (Debye)      :      0.03355

                             ****ORCA TERMINATED NORMALLY****
TOTAL RUN TIME: 0 days 0 hours 0 minutes 20 seconds 898 msec
