                         Program Version 4.0.0.2 - RELEASE -
|  1> ! WB97X-D3 6-31G(d) VerySlowConv
|  2> ! KDIIS NOSOSCF
|  3> %base "Scan_5"
|  4>
|  5> %scf
|  6> maxiter 999
|  7> end
|  8>
|  9> * xyz 0 1
| 10> C         -0.666711600696    1.613610000000   -0.000000000000
| 11> O          0.407671600696    1.613610000000   -0.000000000000
| 12> **                         ****END OF INPUT****

CARTESIAN COORDINATES (ANGSTROEM)
---------------------------------
  C     -0.666712    1.613610   -0.000000
  O      0.407672    1.613610   -0.000000

 Total Charge           Charge          ....    0
 Multiplicity           Mult            ....    1
 Number of Electrons    NEL             ....   14
 Basis Dimension        Dim             ....   28

ORBITAL ENERGIES
----------------

  NO   OCC          E(Eh)            E(eV)
   0   2.0000     -19.356544      -526.7183
   1   2.0000     -10.383144      -282.5397
   2   2.0000      -1.307145       -35.5692
   3   2.0000      -0.674237       -18.3469
   4   2.0000      -0.589912       -16.0523
   5   2.0000      -0.589912       -16.0523
   6   2.0000      -0.464384       -12.6365
   7   0.0000       0.099773         2.7150
   8   0.0000       0.099773         2.7150
   9   0.0000       0.364514         9.9189
  10   0.0000       0.617070        16.7913
  11   0.0000       0.617070        16.7913

MULLIKEN ATOMIC CHARGES
-----------------------
   0 C :    0.112497
   1 O :   -0.112497
Sum of atomic charges:   -0.0000000

LOEWDIN ATOMIC CHARGES
----------------------
   0 C :   -0.051643
   1 O :    0.051643

  Mayer bond orders larger than 0.1
B(  0-C ,  1-O ) :   2.4438

Dispersion correction           -0.000000073
FINAL SINGLE POINT ENERGY      -113.265003444563

DIPOLE MOMENT
-------------
                                X             Y             Z
Electronic contribution:      0.08993       0.00000      -0.00000
Nuclear contribution   :      0.00681      -0.00000       0.00000
                        -----------------------------------------
Total Dipole Moment    :      0.09674       0.00000      -0.00000
                        -----------------------------------------
Magnitude (a.u.)       :      0.09674
Magnitude (Debye)      :      0.24590

                             ****ORCA TERMINATED NORMALLY****
TOTAL RUN TIME: 0 days 0 hours 0 minutes 3 seconds 102 msec
