                         Program Version 4.0.0.2 - RELEASE -
|  1> ! WB97X-D3 6-31G(d) VerySlowConv
|  2> ! KDIIS NOSOSCF
|  3> %base "Scan_6"
|  4>
|  5> %scf
|  6> maxiter 999
|  7> end
|  8>
|  9> * xyz 0 1
| 10> C         -0.678257532918    1.613610000000   -0.000000000000
| 11> O          0.419217532918    1.613610000000   -0.000000000000
| 12> **                         ****END OF INPUT****

CARTESIAN COORDINATES (ANGSTROEM)
---------------------------------
  C     -0.678258    1.613610   -0.000000
  O      0.419218    1.613610   -0.000000

 Total Charge           Charge          ....    0
 Multiplicity           Mult            ....    1
 Number of Electrons    NEL             ....   14
 Basis Dimension        Dim             ....   28

ORBITAL ENERGIES
----------------

  NO   OCC          E(Eh)            E(eV)
   0   2.0000     -19.357554      -526.7458
   1   2.0000     -10.391141      -282.7573
   2   2.0000      -1.293925       -35.2095
   3   2.0000      -0.674140       -18.3443
   4   2.0000      -0.581174       -15.8145
   5   2.0000      -0.581174       -15.8145
   6   2.0000      -0.466977       -12.7071
   7   0.0000       0.089748         2.4422
   8   0.0000       0.089748         2.4422
   9   0.0000       0.362444         9.8626
  10   0.0000       0.617984        16.8162
  11   0.0000       0.617984        16.8162

MULLIKEN ATOMIC CHARGES
-----------------------
   0 C :    0.134461
   1 O :   -0.134461
Sum of atomic charges:    0.0000000

LOEWDIN ATOMIC CHARGES
----------------------
   0 C :   -0.032261
   1 O :    0.032261

  Mayer bond orders larger than 0.1
B(  0-C ,  1-O ) :   2.4280

Dispersion correction           -0.000000087
FINAL SINGLE POINT ENERGY      -113.271384622061

DIPOLE MOMENT
-------------
                                X             Y             Z
Electronic contribution:      0.05755      -0.00000      -0.00000
Nuclear contribution   :      0.00696      -0.00000       0.00000
                        -----------------------------------------
Total Dipole Moment    :      0.06451      -0.00000      -0.00000
                        -----------------------------------------
Magnitude (a.u.)       :      0.06451
Magnitude (Debye)      :      0.16396

                             ****ORCA TERMINATED NORMALLY****
TOTAL RUN TIME: 0 days 0 hours 0 minutes 3 seconds 134 msec
