                         Program Version 4.0.0.2 - RELEASE -
|  1> ! WB97X-D3 6-31G(d) VerySlowConv
|  2> ! KDIIS NOSOSCF
|  3> %base "Scan_7"
|  4>
|  5> %scf
|  6> maxiter 999
|  7> end
|  8>
|  9> * xyz 0 1
| 10> C         -0.691356228199    1.613610000000   -0.000000000000
| 11> O          0.432316228199    1.613610000000   -0.000000000000
| 12> **                         ****END OF INPUT****

CARTESIAN COORDINATES (ANGSTROEM)
---------------------------------
  C     -0.691356    1.613610   -0.000000
  O      0.432316    1.613610   -0.000000

 Total Charge           Charge          ....    0
 Multiplicity           Mult            ....    1
 Number of Electrons    NEL             ....   14
 Basis Dimension        Dim             ....   28

ORBITAL ENERGIES
----------------

  NO   OCC          E(Eh)            E(eV)
   0   2.0000     -19.358463      -526.7706
   1   2.0000     -10.400152      -283.0025
   2   2.0000      -1.279070       -34.8053
   3   2.0000      -0.674073       -18.3424
   4   2.0000      -0.571606       -15.5542
   5   2.0000      -0.571606       -15.5542
   6   2.0000      -0.469708       -12.7814
   7   0.0000       0.078804         2.1444
   8   0.0000       0.078804         2.1444
   9   0.0000       0.359633         9.7861
  10   0.0000       0.618936        16.8421
  11   0.0000       0.618936        16.8421

MULLIKEN ATOMIC CHARGES
-----------------------
   0 C :    0.158452
   1 O :   -0.158452
Sum of atomic charges:    0.0000000

LOEWDIN ATOMIC CHARGES
----------------------
   0 C :   -0.010579
   1 O :    0.010579

  Mayer bond orders larger than 0.1
B(  0-C ,  1-O ) :   2.4105

Dispersion correction           -0.000000105
FINAL SINGLE POINT ENERGY      -113.274740185325

DIPOLE MOMENT
-------------
                                X             Y             Z
Electronic contribution:      0.02054       0.00000      -0.00000
Nuclear contribution   :      0.00713      -0.00000       0.00000
                        -----------------------------------------
Total Dipole Moment    :      0.02767       0.00000      -0.00000
                        -----------------------------------------
Magnitude (a.u.)       :      0.02767
Magnitude (Debye)      :      0.07032

                             ****ORCA TERMINATED NORMALLY****
TOTAL RUN TIME: 0 days 0 hours 0 minutes 13 seconds 450 msec
