                         Program Version 4.0.0.2 - RELEASE -
|  1> ! WB97X-D3 6-31G(d) VerySlowConv
|  2> ! KDIIS NOSOSCF
|  3> %base "Scan_8"
|  4>
|  5> %scf
|  6> maxiter 999
|  7> end
|  8>
|  9> * xyz 0 1
| 10> C         -0.706671087614    1.613610000000   -0.000000000000
| 11> O          0.447631087614    1.613610000000   -0.000000000000
| 12> **                         ****END OF INPUT****

CARTESIAN COORDINATES (ANGSTROEM)
---------------------------------
  C     -0.706671    1.613610   -0.000000
  O      0.447631    1.613610   -0.000000

 Total Charge           Charge          ....    0
 Multiplicity           Mult            ....    1
 Number of Electrons    NEL             ....   14
 Basis Dimension        Dim             ....   28

ORBITAL ENERGIES
----------------

  NO   OCC          E(Eh)            E(eV)
   0   2.0000     -19.359243      -526.7918
   1   2.0000     -10.410548      -283.2854
   2   2.0000      -1.261940       -34.3391
   3   2.0000      -0.674076       -18.3425
   4   2.0000      -0.560859       -15.2618
   5   2.0000      -0.560859       -15.2618
   6   2.0000      -0.472594       -12.8599
   7   0.0000       0.066583         1.8118
   8   0.0000       0.066583         1.8118
   9   0.0000       0.355517         9.6741
  10   0.0000       0.619921        16.8689
  11   0.0000       0.619921        16.8689

MULLIKEN ATOMIC CHARGES
-----------------------
   0 C :    0.185099
   1 O :   -0.185099
Sum of atomic charges:   -0.0000000

LOEWDIN ATOMIC CHARGES
----------------------
   0 C :    0.014259
   1 O :   -0.014259

  Mayer bond orders larger than 0.1
B(  0-C ,  1-O ) :   2.3913

Dispersion correction           -0.000000130
FINAL SINGLE POINT ENERGY      -113.274281965751

DIPOLE MOMENT
-------------
                                X             Y             Z
Electronic contribution:     -0.02297       0.00000       0.00000
Nuclear contribution   :      0.00732      -0.00000       0.00000
                        -----------------------------------------
Total Dipole Moment    :     -0.01565       0.00000       0.00000
                        -----------------------------------------
Magnitude (a.u.)       :      0.01565
Magnitude (Debye)      :      0.03979

                             ****ORCA TERMINATED NORMALLY****
TOTAL RUN TIME: 0 days 0 hours 0 minutes 3 seconds 438 msec
