                         Program Version 4.0.0.2 - RELEASE -
|  1> ! WB97X-D3 6-31G(d) VerySlowConv
|  2> ! KDIIS NOSOSCF
|  3> %base "Scan_9"
|  4>
|  5> %scf
|  6> maxiter 999
|  7> end
|  8>
|  9> * xyz 0 1
| 10> C         -0.724709457162    1.613610000000   -0.000000000000
| 11> O          0.465669457162    1.613610000000   -0.000000000000
| 12> **                         ****END OF INPUT****

CARTESIAN COORDINATES (ANGSTROEM)
---------------------------------
  C     -0.724709    1.613610   -0.000000
  O      0.465669    1.613610   -0.000000

 Total Charge           Charge          ....    0
 Multiplicity           Mult            ....    1
 Number of Electrons    NEL             ....   14
 Basis Dimension        Dim             ....   28

ORBITAL ENERGIES
----------------

  NO   OCC          E(Eh)            E(eV)
   0   2.0000     -19.359755      -526.8057
   1   2.0000     -10.422512      -283.6110
   2   2.0000      -1.242207       -33.8022
   3   2.0000      -0.674238       -18.3469
   4   2.0000      -0.548772       -14.9328
   5   2.0000      -0.548772       -14.9328
   6   2.0000      -0.475535       -12.9400
   7   0.0000       0.052969         1.4414
   8   0.0000       0.052969         1.4414
   9   0.0000       0.349128         9.5003
  10   0.0000       0.620878        16.8950
  11   0.0000       0.620878        16.8950

MULLIKEN ATOMIC CHARGES
-----------------------
   0 C :    0.214310
   1 O :   -0.214310
Sum of atomic charges:   -0.0000000

LOEWDIN ATOMIC CHARGES
----------------------
   0 C :    0.042622
   1 O :   -0.042622

  Mayer bond orders larger than 0.1
B(  0-C ,  1-O ) :   2.3704

Dispersion correction           -0.000000166
FINAL SINGLE POINT ENERGY      -113.268836909537

DIPOLE MOMENT
-------------
                                X             Y             Z
Electronic contribution:     -0.07442       0.00000       0.00000
Nuclear contribution   :      0.00755      -0.00000       0.00000
                        -----------------------------------------
Total Dipole Moment    :     -0.06688       0.00000       0.00000
                        -----------------------------------------
Magnitude (a.u.)       :      0.06688
Magnitude (Debye)      :      0.16998

                             ****ORCA TERMINATED NORMALLY****
TOTAL RUN TIME: 0 days 0 hours 0 minutes 3 seconds 543 msec
