                         Program Version 4.0.0.2 - RELEASE -
|  1> ! WB97X-D3 6-31G(d) VerySlowConv
|  2> ! KDIIS NOSOSCF
|  3> %base "Scan_1"
|  4>
|  5> %scf
|  6> maxiter 999
|  7> end
|  8>
|  9> * xyz 0 1
| 10> F         -0.387311013495    0.936930000000    0.000000000000
| 11> H          0.403861013495    0.936930000000    0.000000000000
| 12> **                         ****END OF INPUT****

CARTESIAN COORDINATES (ANGSTROEM)
---------------------------------
  F     -0.387311    0.936930    0.000000
  H      0.403861    0.936930    0.000000

 Total Charge           Charge          ....    0
 Multiplicity           Mult            ....    1
 Number of Electrons    NEL             ....   10
 Basis Dimension        Dim             ....   16

ORBITAL ENERGIES
----------------

  NO   OCC          E(Eh)            E(eV)
   0   2.0000     -24.754145      -673.5945
   1   2.0000      -1.339257       -36.4430
   2   2.0000      -0.655469       -17.8362
   3   2.0000      -0.494218       -13.4483
   4   2.0000      -0.494218       -13.4483
   5   0.0000       0.218571         5.9476
   6   0.0000       1.097913        29.8757
   7   0.0000       1.283921        34.9373
   8   0.0000       1.283921        34.9373
   9   0.0000       1.332941        36.2712

MULLIKEN ATOMIC CHARGES
-----------------------
   0 F :   -0.482414
   1 H :    0.482414
Sum of atomic charges:   -0.0000000

LOEWDIN ATOMIC CHARGES
----------------------
   0 F :   -0.355250
   1 H :    0.355250

  Mayer bond orders larger than 0.1
B(  0-F ,  1-H ) :   0.7399

Dispersion correction           -0.000000024
FINAL SINGLE POINT ENERGY      -100.367619938607

DIPOLE MOMENT
-------------
                                X             Y             Z
Electronic contribution:     -0.07748      -0.00000      -0.00000
Nuclear contribution   :      0.74179      -0.00000       0.00000
                        -----------------------------------------
Total Dipole Moment    :      0.66431      -0.00000      -0.00000
                        -----------------------------------------
Magnitude (a.u.)       :      0.66431
Magnitude (Debye)      :      1.68855

                             ****ORCA TERMINATED NORMALLY****
TOTAL RUN TIME: 0 days 0 hours 0 minutes 2 seconds 197 msec
