                         Program Version 4.0.0.2 - RELEASE -
|  1> ! WB97X-D3 6-31G(d) VerySlowConv
|  2> ! KDIIS NOSOSCF
|  3> %base "Scan_11"
|  4>
|  5> %scf
|  6> maxiter 999
|  7> end
|  8>
|  9> * xyz 0 1
| 10> F         -0.713938016292    0.936930000000   -0.000000000000
| 11> H          0.730488016292    0.936930000000    0.000000000000
| 12> **                         ****END OF INPUT****

CARTESIAN COORDINATES (ANGSTROEM)
---------------------------------
  F     -0.713938    0.936930   -0.000000
  H      0.730488    0.936930    0.000000

 Total Charge           Charge          ....    0
 Multiplicity           Mult            ....    1
 Number of Electrons    NEL             ....   10
 Basis Dimension        Dim             ....   16

ORBITAL ENERGIES
----------------

  NO   OCC          E(Eh)            E(eV)
   0   2.0000     -24.767132      -673.9479
   1   2.0000      -1.202640       -32.7255
   2   2.0000      -0.523659       -14.2495
   3   2.0000      -0.451827       -12.2948
   4   2.0000      -0.451827       -12.2948
   5   0.0000      -0.023377        -0.6361
   6   0.0000       0.773793        21.0560
   7   0.0000       1.310666        35.6650
   8   0.0000       1.310666        35.6650
   9   0.0000       1.397334        38.0234

MULLIKEN ATOMIC CHARGES
-----------------------
   0 F :   -0.363948
   1 H :    0.363948
Sum of atomic charges:   -0.0000000

LOEWDIN ATOMIC CHARGES
----------------------
   0 F :   -0.341051
   1 H :    0.341051

  Mayer bond orders larger than 0.1
B(  0-F ,  1-H ) :   0.8624

Dispersion correction           -0.000005155
FINAL SINGLE POINT ENERGY      -100.292883275865

DIPOLE MOMENT
-------------
                                X             Y             Z
Electronic contribution:     -0.40313      -0.00000      -0.00000
Nuclear contribution   :      1.35428      -0.00000       0.00000
                        -----------------------------------------
Total Dipole Moment    :      0.95115      -0.00000      -0.00000
                        -----------------------------------------
Magnitude (a.u.)       :      0.95115
Magnitude (Debye)      :      2.41763

                             ****ORCA TERMINATED NORMALLY****
TOTAL RUN TIME: 0 days 0 hours 0 minutes 2 seconds 652 msec
