                         Program Version 4.0.0.2 - RELEASE -
|  1> ! WB97X-D3 6-31G(d) VerySlowConv
|  2> ! KDIIS NOSOSCF
|  3> %base "Scan_12"
|  4>
|  5> %scf
|  6> maxiter 999
|  7> end
|  8>
|  9> * xyz 0 1
| 10> F         -0.771452946483    0.936930000000   -0.000000000000
| 11> H          0.788002946483    0.936930000000    0.000000000000
| 12> **                         ****END OF INPUT****

CARTESIAN COORDINATES (ANGSTROEM)
---------------------------------
  F     -0.771453    0.936930   -0.000000
  H      0.788003    0.936930    0.000000

 Total Charge           Charge          ....    0
 Multiplicity           Mult            ....    1
 Number of Electrons    NEL             ....   10
 Basis Dimension        Dim             ....   16

ORBITAL ENERGIES
----------------

  NO   OCC          E(Eh)            E(eV)
   0   2.0000     -24.766929      -673.9424
   1   2.0000      -1.196625       -32.5618
   2   2.0000      -0.507704       -13.8153
   3   2.0000      -0.449030       -12.2187
   4   2.0000      -0.449030       -12.2187
   5   0.0000      -0.054579        -1.4852
   6   0.0000       0.788409        21.4537
   7   0.0000       1.314335        35.7649
   8   0.0000       1.314335        35.7649
   9   0.0000       1.385576        37.7035

MULLIKEN ATOMIC CHARGES
-----------------------
   0 F :   -0.337064
   1 H :    0.337064
Sum of atomic charges:   -0.0000000

LOEWDIN ATOMIC CHARGES
----------------------
   0 F :   -0.323543
   1 H :    0.323543

  Mayer bond orders larger than 0.1
B(  0-F ,  1-H ) :   0.8830

Dispersion correction           -0.000009690
FINAL SINGLE POINT ENERGY      -100.266492011768

DIPOLE MOMENT
-------------
                                X             Y             Z
Electronic contribution:     -0.47715       0.00000      -0.00000
Nuclear contribution   :      1.46213      -0.00000       0.00000
                        -----------------------------------------
Total Dipole Moment    :      0.98498       0.00000      -0.00000
                        -----------------------------------------
Magnitude (a.u.)       :      0.98498
Magnitude (Debye)      :      2.50363

                             ****ORCA TERMINATED NORMALLY****
TOTAL RUN TIME: 0 days 0 hours 0 minutes 3 seconds 615 msec
