                         Program Version 4.0.0.2 - RELEASE -
|  1> ! WB97X-D3 6-31G(d) VerySlowConv
|  2> ! KDIIS NOSOSCF
|  3> %base "Scan_14"
|  4>
|  5> %scf
|  6> maxiter 999
|  7> end
|  8>
|  9> * xyz 0 1
| 10> F         -0.886690015732    0.936930000000   -0.000000000000
| 11> H          0.903240015732    0.936930000000   -0.000000000000
| 12> **                         ****END OF INPUT****

CARTESIAN COORDINATES (ANGSTROEM)
---------------------------------
  F     -0.886690    0.936930   -0.000000
  H      0.903240    0.936930   -0.000000

 Total Charge           Charge          ....    0
 Multiplicity           Mult            ....    1
 Number of Electrons    NEL             ....   10
 Basis Dimension        Dim             ....   16

ORBITAL ENERGIES
----------------

  NO   OCC          E(Eh)            E(eV)
   0   2.0000     -24.764028      -673.8634
   1   2.0000      -1.188873       -32.3509
   2   2.0000      -0.480580       -13.0773
   3   2.0000      -0.444434       -12.0937
   4   2.0000      -0.444434       -12.0937
   5   0.0000      -0.103361        -2.8126
   6   0.0000       0.811544        22.0832
   7   0.0000       1.321145        35.9502
   8   0.0000       1.321145        35.9502
   9   0.0000       1.358482        36.9662

MULLIKEN ATOMIC CHARGES
-----------------------
   0 F :   -0.297164
   1 H :    0.297164
Sum of atomic charges:   -0.0000000

LOEWDIN ATOMIC CHARGES
----------------------
   0 F :   -0.295092
   1 H :    0.295092

  Mayer bond orders larger than 0.1
B(  0-F ,  1-H ) :   0.9105

Dispersion correction           -0.000029270
FINAL SINGLE POINT ENERGY      -100.219789209629

DIPOLE MOMENT
-------------
                                X             Y             Z
Electronic contribution:     -0.62629       0.00000      -0.00000
Nuclear contribution   :      1.67822      -0.00000       0.00000
                        -----------------------------------------
Total Dipole Moment    :      1.05193       0.00000      -0.00000
                        -----------------------------------------
Magnitude (a.u.)       :      1.05193
Magnitude (Debye)      :      2.67379

                             ****ORCA TERMINATED NORMALLY****
TOTAL RUN TIME: 0 days 0 hours 0 minutes 3 seconds 321 msec
