                         Program Version 4.0.0.2 - RELEASE -
|  1> ! WB97X-D3 6-31G(d) VerySlowConv
|  2> ! KDIIS NOSOSCF
|  3> %base "Scan_15"
|  4>
|  5> %scf
|  6> maxiter 999
|  7> end
|  8>
|  9> * xyz 0 1
| 10> F         -0.942862348445    0.936930000000   -0.000000000000
| 11> H          0.959412348445    0.936930000000   -0.000000000000
| 12> **                         ****END OF INPUT****

CARTESIAN COORDINATES (ANGSTROEM)
---------------------------------
  F     -0.942862    0.936930   -0.000000
  H      0.959412    0.936930   -0.000000

 Total Charge           Charge          ....    0
 Multiplicity           Mult            ....    1
 Number of Electrons    NEL             ....   10
 Basis Dimension        Dim             ....   16

ORBITAL ENERGIES
----------------

  NO   OCC          E(Eh)            E(eV)
   0   2.0000     -24.762068      -673.8101
   1   2.0000      -1.186206       -32.2783
   2   2.0000      -0.469323       -12.7709
   3   2.0000      -0.442546       -12.0423
   4   2.0000      -0.442546       -12.0423
   5   0.0000      -0.121860        -3.3160
   6   0.0000       0.812615        22.1124
   7   0.0000       1.324109        36.0308
   8   0.0000       1.324109        36.0308
   9   0.0000       1.352503        36.8035

MULLIKEN ATOMIC CHARGES
-----------------------
   0 F :   -0.284414
   1 H :    0.284414
Sum of atomic charges:   -0.0000000

LOEWDIN ATOMIC CHARGES
----------------------
   0 F :   -0.285303
   1 H :    0.285303

  Mayer bond orders larger than 0.1
B(  0-F ,  1-H ) :   0.9185

Dispersion correction           -0.000047382
FINAL SINGLE POINT ENERGY      -100.200139220267

DIPOLE MOMENT
-------------
                                X             Y             Z
Electronic contribution:     -0.69752       0.00000       0.00000
Nuclear contribution   :      1.78355      -0.00000       0.00000
                        -----------------------------------------
Total Dipole Moment    :      1.08603       0.00000       0.00000
                        -----------------------------------------
Magnitude (a.u.)       :      1.08603
Magnitude (Debye)      :      2.76048

                             ****ORCA TERMINATED NORMALLY****
TOTAL RUN TIME: 0 days 0 hours 0 minutes 14 seconds 486 msec
