                         Program Version 4.0.0.2 - RELEASE -
|  1> ! WB97X-D3 6-31G(d) VerySlowConv
|  2> ! KDIIS NOSOSCF
|  3> %base "Scan_16"
|  4>
|  5> %scf
|  6> maxiter 999
|  7> end
|  8>
|  9> * xyz 0 1
| 10> F         -0.997933668496    0.936930000000   -0.000000000000
| 11> H          1.014483668496    0.936930000000   -0.000000000000
| 12> **                         ****END OF INPUT****

CARTESIAN COORDINATES (ANGSTROEM)
---------------------------------
  F     -0.997934    0.936930   -0.000000
  H      1.014484    0.936930   -0.000000

 Total Charge           Charge          ....    0
 Multiplicity           Mult            ....    1
 Number of Electrons    NEL             ....   10
 Basis Dimension        Dim             ....   16

ORBITAL ENERGIES
----------------

  NO   OCC          E(Eh)            E(eV)
   0   2.0000     -24.760097      -673.7565
   1   2.0000      -1.183907       -32.2158
   2   2.0000      -0.459362       -12.4999
   3   2.0000      -0.440807       -11.9950
   4   2.0000      -0.440807       -11.9950
   5   0.0000      -0.137161        -3.7323
   6   0.0000       0.807764        21.9804
   7   0.0000       1.326718        36.1018
   8   0.0000       1.326718        36.1018
   9   0.0000       1.350993        36.7624

MULLIKEN ATOMIC CHARGES
-----------------------
   0 F :   -0.275626
   1 H :    0.275626
Sum of atomic charges:   -0.0000000

LOEWDIN ATOMIC CHARGES
----------------------
   0 F :   -0.278298
   1 H :    0.278298

  Mayer bond orders larger than 0.1
B(  0-F ,  1-H ) :   0.9238

Dispersion correction           -0.000073342
FINAL SINGLE POINT ENERGY      -100.182753980855

DIPOLE MOMENT
-------------
                                X             Y             Z
Electronic contribution:     -0.76502      -0.00000       0.00000
Nuclear contribution   :      1.88682      -0.00000       0.00000
                        -----------------------------------------
Total Dipole Moment    :      1.12180      -0.00000       0.00000
                        -----------------------------------------
Magnitude (a.u.)       :      1.12180
Magnitude (Debye)      :      2.85139

                             ****ORCA TERMINATED NORMALLY****
TOTAL RUN TIME: 0 days 0 hours 0 minutes 3 seconds 101 msec
