                         Program Version 4.0.0.2 - RELEASE -
|  1> ! WB97X-D3 6-31G(d) VerySlowConv
|  2> ! KDIIS NOSOSCF
|  3> %base "Scan_17"
|  4>
|  5> %scf
|  6> maxiter 999
|  7> end
|  8>
|  9> * xyz 0 1
| 10> F         -1.052045954600    0.936930000000   -0.000000000000
| 11> H          1.068595954600    0.936930000000   -0.000000000000
| 12> **                         ****END OF INPUT****

CARTESIAN COORDINATES (ANGSTROEM)
---------------------------------
  F     -1.052046    0.936930   -0.000000
  H      1.068596    0.936930   -0.000000

 Total Charge           Charge          ....    0
 Multiplicity           Mult            ....    1
 Number of Electrons    NEL             ....   10
 Basis Dimension        Dim             ....   16

ORBITAL ENERGIES
----------------

  NO   OCC          E(Eh)            E(eV)
   0   2.0000     -24.667076      -671.2253
   1   2.0000      -1.125550       -30.6278
   2   2.0000      -0.385451       -10.4886
   3   2.0000      -0.385451       -10.4886
   4   2.0000      -0.344168        -9.3653
   5   0.0000      -0.222860        -6.0643
   6   0.0000       0.783394        21.3172
   7   0.0000       1.370330        37.2886
   8   0.0000       1.370330        37.2886
   9   0.0000       1.394001        37.9327

MULLIKEN ATOMIC CHARGES
-----------------------
   0 F :   -0.416668
   1 H :    0.416668
Sum of atomic charges:   -0.0000000

LOEWDIN ATOMIC CHARGES
----------------------
   0 F :   -0.407375
   1 H :    0.407375

  Mayer bond orders larger than 0.1
B(  0-F ,  1-H ) :   0.8269

Dispersion correction           -0.000108304
FINAL SINGLE POINT ENERGY      -100.006833103815

DIPOLE MOMENT
-------------
                                X             Y             Z
Electronic contribution:     -0.47912       0.00000      -0.00000
Nuclear contribution   :      1.98829      -0.00000       0.00000
                        -----------------------------------------
Total Dipole Moment    :      1.50918       0.00000      -0.00000
                        -----------------------------------------
Magnitude (a.u.)       :      1.50918
Magnitude (Debye)      :      3.83602

                             ****ORCA TERMINATED NORMALLY****
TOTAL RUN TIME: 0 days 0 hours 0 minutes 6 seconds 648 msec
