                         Program Version 4.0.0.2 - RELEASE -
|  1> ! WB97X-D3 6-31G(d) VerySlowConv
|  2> ! KDIIS NOSOSCF
|  3> %base "Scan_18"
|  4>
|  5> %scf
|  6> maxiter 999
|  7> end
|  8>
|  9> * xyz 0 1
| 10> F         -1.105364132636    0.936930000000   -0.000000000000
| 11> H          1.121914132636    0.936930000000   -0.000000000000
| 12> **                         ****END OF INPUT****

CARTESIAN COORDINATES (ANGSTROEM)
---------------------------------
  F     -1.105364    0.936930   -0.000000
  H      1.121914    0.936930   -0.000000

 Total Charge           Charge          ....    0
 Multiplicity           Mult            ....    1
 Number of Electrons    NEL             ....   10
 Basis Dimension        Dim             ....   16

ORBITAL ENERGIES
----------------

  NO   OCC          E(Eh)            E(eV)
   0   2.0000     -24.756764      -673.6658
   1   2.0000      -1.180327       -32.1183
   2   2.0000      -0.442335       -12.0365
   3   2.0000      -0.438046       -11.9198
   4   2.0000      -0.438046       -11.9198
   5   0.0000      -0.161031        -4.3819
   6   0.0000       0.790631        21.5142
   7   0.0000       1.330607        36.2076
   8   0.0000       1.330607        36.2076
   9   0.0000       1.352213        36.7956

MULLIKEN ATOMIC CHARGES
-----------------------
   0 F :   -0.264775
   1 H :    0.264775
Sum of atomic charges:   -0.0000000

LOEWDIN ATOMIC CHARGES
----------------------
   0 F :   -0.268855
   1 H :    0.268855

  Mayer bond orders larger than 0.1
B(  0-F ,  1-H ) :   0.9300

Dispersion correction           -0.000151278
FINAL SINGLE POINT ENERGY      -100.153671920027

DIPOLE MOMENT
-------------
                                X             Y             Z
Electronic contribution:     -0.89565       0.00000       0.00000
Nuclear contribution   :      2.08827      -0.00000       0.00000
                        -----------------------------------------
Total Dipole Moment    :      1.19262       0.00000       0.00000
                        -----------------------------------------
Magnitude (a.u.)       :      1.19262
Magnitude (Debye)      :      3.03141

                             ****ORCA TERMINATED NORMALLY****
TOTAL RUN TIME: 0 days 0 hours 0 minutes 16 seconds 495 msec
