                         Program Version 4.0.0.2 - RELEASE -
|  1> ! WB97X-D3 6-31G(d) VerySlowConv
|  2> ! KDIIS NOSOSCF
|  3> %base "Scan_19"
|  4>
|  5> %scf
|  6> maxiter 999
|  7> end
|  8>
|  9> * xyz 0 1
| 10> F         -1.158052680917    0.936930000000    0.000000000000
| 11> H          1.174602680917    0.936930000000   -0.000000000000
| 12> **                         ****END OF INPUT****

CARTESIAN COORDINATES (ANGSTROEM)
---------------------------------
  F     -1.158053    0.936930    0.000000
  H      1.174603    0.936930   -0.000000

 Total Charge           Charge          ....    0
 Multiplicity           Mult            ....    1
 Number of Electrons    NEL             ....   10
 Basis Dimension        Dim             ....   16

ORBITAL ENERGIES
----------------

  NO   OCC          E(Eh)            E(eV)
   0   2.0000     -24.755040      -673.6189
   1   2.0000      -1.178668       -32.0732
   2   2.0000      -0.436673       -11.8825
   3   2.0000      -0.436673       -11.8825
   4   2.0000      -0.434945       -11.8355
   5   0.0000      -0.170328        -4.6348
   6   0.0000       0.782153        21.2835
   7   0.0000       1.332236        36.2520
   8   0.0000       1.332236        36.2520
   9   0.0000       1.352126        36.7932

MULLIKEN ATOMIC CHARGES
-----------------------
   0 F :   -0.262116
   1 H :    0.262116
Sum of atomic charges:    0.0000000

LOEWDIN ATOMIC CHARGES
----------------------
   0 F :   -0.266252
   1 H :    0.266252

  Mayer bond orders larger than 0.1
B(  0-F ,  1-H ) :   0.9315

Dispersion correction           -0.000196967
FINAL SINGLE POINT ENERGY      -100.141466822228

DIPOLE MOMENT
-------------
                                X             Y             Z
Electronic contribution:     -0.95672      -0.00000       0.00000
Nuclear contribution   :      2.18707      -0.00000       0.00000
                        -----------------------------------------
Total Dipole Moment    :      1.23035      -0.00000       0.00000
                        -----------------------------------------
Magnitude (a.u.)       :      1.23035
Magnitude (Debye)      :      3.12731

                             ****ORCA TERMINATED NORMALLY****
TOTAL RUN TIME: 0 days 0 hours 0 minutes 4 seconds 128 msec
