                         Program Version 4.0.0.2 - RELEASE -
|  1> ! WB97X-D3 6-31G(d) VerySlowConv
|  2> ! KDIIS NOSOSCF
|  3> %base "Scan_20"
|  4>
|  5> %scf
|  6> maxiter 999
|  7> end
|  8>
|  9> * xyz 0 1
| 10> F         -1.210278414513    0.936930000000    0.000000000000
| 11> H          1.226828414513    0.936930000000   -0.000000000000
| 12> **                         ****END OF INPUT****

CARTESIAN COORDINATES (ANGSTROEM)
---------------------------------
  F     -1.210278    0.936930    0.000000
  H      1.226828    0.936930   -0.000000

 Total Charge           Charge          ....    0
 Multiplicity           Mult            ....    1
 Number of Electrons    NEL             ....   10
 Basis Dimension        Dim             ....   16

ORBITAL ENERGIES
----------------

  NO   OCC          E(Eh)            E(eV)
   0   2.0000     -24.753515      -673.5774
   1   2.0000      -1.177327       -32.0367
   2   2.0000      -0.435558       -11.8521
   3   2.0000      -0.435558       -11.8521
   4   2.0000      -0.428216       -11.6524
   5   0.0000      -0.178542        -4.8584
   6   0.0000       0.775633        21.1060
   7   0.0000       1.333518        36.2869
   8   0.0000       1.333518        36.2869
   9   0.0000       1.351128        36.7661

MULLIKEN ATOMIC CHARGES
-----------------------
   0 F :   -0.259729
   1 H :    0.259729
Sum of atomic charges:   -0.0000000

LOEWDIN ATOMIC CHARGES
----------------------
   0 F :   -0.263688
   1 H :    0.263688

  Mayer bond orders larger than 0.1
B(  0-F ,  1-H ) :   0.9328

Dispersion correction           -0.000235437
FINAL SINGLE POINT ENERGY      -100.130532317254

DIPOLE MOMENT
-------------
                                X             Y             Z
Electronic contribution:     -1.01926      -0.00000      -0.00000
Nuclear contribution   :      2.28501      -0.00000       0.00000
                        -----------------------------------------
Total Dipole Moment    :      1.26575      -0.00000      -0.00000
                        -----------------------------------------
Magnitude (a.u.)       :      1.26575
Magnitude (Debye)      :      3.21727

                             ****ORCA TERMINATED NORMALLY****
TOTAL RUN TIME: 0 days 0 hours 0 minutes 5 seconds 687 msec
