                         Program Version 4.0.0.2 - RELEASE -
|  1> ! WB97X-D3 6-31G(d) VerySlowConv
|  2> ! KDIIS NOSOSCF
|  3> %base "Scan_21"
|  4>
|  5> %scf
|  6> maxiter 999
|  7> end
|  8>
|  9> * xyz 0 1
| 10> F         -1.262182525621    0.936930000000    0.000000000000
| 11> H          1.278732525621    0.936930000000   -0.000000000000
| 12> **                         ****END OF INPUT****

CARTESIAN COORDINATES (ANGSTROEM)
---------------------------------
  F     -1.262183    0.936930    0.000000
  H      1.278733    0.936930   -0.000000

 Total Charge           Charge          ....    0
 Multiplicity           Mult            ....    1
 Number of Electrons    NEL             ....   10
 Basis Dimension        Dim             ....   16

ORBITAL ENERGIES
----------------

  NO   OCC          E(Eh)            E(eV)
   0   2.0000     -24.751815      -673.5311
   1   2.0000      -1.175834       -31.9961
   2   2.0000      -0.434277       -11.8173
   3   2.0000      -0.434277       -11.8173
   4   2.0000      -0.421915       -11.4809
   5   0.0000      -0.185549        -5.0491
   6   0.0000       0.770634        20.9700
   7   0.0000       1.334841        36.3229
   8   0.0000       1.334841        36.3229
   9   0.0000       1.349128        36.7116

MULLIKEN ATOMIC CHARGES
-----------------------
   0 F :   -0.258592
   1 H :    0.258592
Sum of atomic charges:   -0.0000000

LOEWDIN ATOMIC CHARGES
----------------------
   0 F :   -0.262217
   1 H :    0.262217

  Mayer bond orders larger than 0.1
B(  0-F ,  1-H ) :   0.9334

Dispersion correction           -0.000257146
FINAL SINGLE POINT ENERGY      -100.120686558369

DIPOLE MOMENT
-------------
                                X             Y             Z
Electronic contribution:     -1.07820      -0.00000      -0.00000
Nuclear contribution   :      2.38234      -0.00000       0.00000
                        -----------------------------------------
Total Dipole Moment    :      1.30414      -0.00000      -0.00000
                        -----------------------------------------
Magnitude (a.u.)       :      1.30414
Magnitude (Debye)      :      3.31485

                             ****ORCA TERMINATED NORMALLY****
TOTAL RUN TIME: 0 days 0 hours 0 minutes 5 seconds 855 msec
