                         Program Version 4.0.0.2 - RELEASE -
|  1> ! WB97X-D3 6-31G(d) VerySlowConv
|  2> ! KDIIS NOSOSCF
|  3> %base "Scan_22"
|  4>
|  5> %scf
|  6> maxiter 999
|  7> end
|  8>
|  9> * xyz 0 1
| 10> F         -1.313861215427    0.936930000000    0.000000000000
| 11> H          1.330411215427    0.936930000000   -0.000000000000
| 12> **                         ****END OF INPUT****

CARTESIAN COORDINATES (ANGSTROEM)
---------------------------------
  F     -1.313861    0.936930    0.000000
  H      1.330411    0.936930   -0.000000

 Total Charge           Charge          ....    0
 Multiplicity           Mult            ....    1
 Number of Electrons    NEL             ....   10
 Basis Dimension        Dim             ....   16

ORBITAL ENERGIES
----------------

  NO   OCC          E(Eh)            E(eV)
   0   2.0000     -24.384480      -663.5354
   1   2.0000      -0.869149       -23.6507
   2   2.0000      -0.147054        -4.0015
   3   2.0000      -0.139658        -3.8003
   4   2.0000      -0.139658        -3.8003
   5   0.0000      -0.313387        -8.5277
   6   0.0000       0.622330        16.9345
   7   0.0000       1.579343        42.9761
   8   0.0000       1.579343        42.9761
   9   0.0000       1.587834        43.2072

MULLIKEN ATOMIC CHARGES
-----------------------
   0 F :   -0.984086
   1 H :    0.984086
Sum of atomic charges:   -0.0000000

LOEWDIN ATOMIC CHARGES
----------------------
   0 F :   -0.983862
   1 H :    0.983862

Dispersion correction           -0.000260309
FINAL SINGLE POINT ENERGY       -99.933854251554

DIPOLE MOMENT
-------------
                                X             Y             Z
Electronic contribution:      2.37425      -0.00000       0.00000
Nuclear contribution   :      2.47924      -0.00000       0.00000
                        -----------------------------------------
Total Dipole Moment    :      4.85349      -0.00000       0.00000
                        -----------------------------------------
Magnitude (a.u.)       :      4.85349
Magnitude (Debye)      :     12.33660

                             ****ORCA TERMINATED NORMALLY****
TOTAL RUN TIME: 0 days 0 hours 0 minutes 4 seconds 21 msec
