                         Program Version 4.0.0.2 - RELEASE -
|  1> ! WB97X-D3 6-31G(d) VerySlowConv
|  2> ! KDIIS NOSOSCF
|  3> %base "Scan_23"
|  4>
|  5> %scf
|  6> maxiter 999
|  7> end
|  8>
|  9> * xyz 0 1
| 10> F         -1.365379584072    0.936930000000    0.000000000000
| 11> H          1.381929584072    0.936930000000   -0.000000000000
| 12> **                         ****END OF INPUT****

CARTESIAN COORDINATES (ANGSTROEM)
---------------------------------
  F     -1.365380    0.936930    0.000000
  H      1.381930    0.936930   -0.000000

 Total Charge           Charge          ....    0
 Multiplicity           Mult            ....    1
 Number of Electrons    NEL             ....   10
 Basis Dimension        Dim             ....   16

ORBITAL ENERGIES
----------------

  NO   OCC          E(Eh)            E(eV)
   0   2.0000     -24.376359      -663.3145
   1   2.0000      -0.860703       -23.4209
   2   2.0000      -0.138677        -3.7736
   3   2.0000      -0.131624        -3.5817
   4   2.0000      -0.131624        -3.5817
   5   0.0000      -0.318128        -8.6567
   6   0.0000       0.617588        16.8054
   7   0.0000       1.586973        43.1837
   8   0.0000       1.586973        43.1837
   9   0.0000       1.591666        43.3114

MULLIKEN ATOMIC CHARGES
-----------------------
   0 F :   -0.987439
   1 H :    0.987439
Sum of atomic charges:   -0.0000000

LOEWDIN ATOMIC CHARGES
----------------------
   0 F :   -0.987597
   1 H :    0.987597

Dispersion correction           -0.000250942
FINAL SINGLE POINT ENERGY       -99.926963076580

DIPOLE MOMENT
-------------
                                X             Y             Z
Electronic contribution:      2.49042      -0.00000      -0.00000
Nuclear contribution   :      2.57585      -0.00000       0.00000
                        -----------------------------------------
Total Dipole Moment    :      5.06627      -0.00000      -0.00000
                        -----------------------------------------
Magnitude (a.u.)       :      5.06627
Magnitude (Debye)      :     12.87743

                             ****ORCA TERMINATED NORMALLY****
TOTAL RUN TIME: 0 days 0 hours 0 minutes 5 seconds 831 msec
