                         Program Version 4.0.0.2 - RELEASE -
|  1> ! WB97X-D3 6-31G(d) VerySlowConv
|  2> ! KDIIS NOSOSCF
|  3> %base "Scan_24"
|  4>
|  5> %scf
|  6> maxiter 999
|  7> end
|  8>
|  9> * xyz 0 1
| 10> F         -1.416784781644    0.936930000000    0.000000000000
| 11> H          1.433334781644    0.936930000000   -0.000000000000
| 12> **                         ****END OF INPUT****

CARTESIAN COORDINATES (ANGSTROEM)
---------------------------------
  F     -1.416785    0.936930    0.000000
  H      1.433335    0.936930   -0.000000

 Total Charge           Charge          ....    0
 Multiplicity           Mult            ....    1
 Number of Electrons    NEL             ....   10
 Basis Dimension        Dim             ....   16

ORBITAL ENERGIES
----------------

  NO   OCC          E(Eh)            E(eV)
   0   2.0000     -24.746494      -673.3863
   1   2.0000      -1.171589       -31.8805
   2   2.0000      -0.430453       -11.7132
   3   2.0000      -0.430453       -11.7132
   4   2.0000      -0.405320       -11.0293
   5   0.0000      -0.201807        -5.4914
   6   0.0000       0.764655        20.8073
   7   0.0000       1.338529        36.4232
   8   0.0000       1.338529        36.4232
   9   0.0000       1.340471        36.4761

MULLIKEN ATOMIC CHARGES
-----------------------
   0 F :   -0.256863
   1 H :    0.256863
Sum of atomic charges:    0.0000000

LOEWDIN ATOMIC CHARGES
----------------------
   0 F :   -0.259210
   1 H :    0.259210

  Mayer bond orders larger than 0.1
B(  0-F ,  1-H ) :   0.9342

Dispersion correction           -0.000235907
FINAL SINGLE POINT ENERGY      -100.096471567820

DIPOLE MOMENT
-------------
                                X             Y             Z
Electronic contribution:     -1.25004       0.00000       0.00000
Nuclear contribution   :      2.67224      -0.00000       0.00000
                        -----------------------------------------
Total Dipole Moment    :      1.42221       0.00000       0.00000
                        -----------------------------------------
Magnitude (a.u.)       :      1.42221
Magnitude (Debye)      :      3.61496

                             ****ORCA TERMINATED NORMALLY****
TOTAL RUN TIME: 0 days 0 hours 0 minutes 4 seconds 313 msec
