                         Program Version 4.0.0.2 - RELEASE -
|  1> ! WB97X-D3 6-31G(d) VerySlowConv
|  2> ! KDIIS NOSOSCF
|  3> %base "Scan_25"
|  4>
|  5> %scf
|  6> maxiter 999
|  7> end
|  8>
|  9> * xyz 0 1
| 10> F         -1.468111237983    0.936930000000    0.000000000000
| 11> H          1.484661237983    0.936930000000   -0.000000000000
| 12> **                         ****END OF INPUT****

CARTESIAN COORDINATES (ANGSTROEM)
---------------------------------
  F     -1.468111    0.936930    0.000000
  H      1.484661    0.936930   -0.000000

 Total Charge           Charge          ....    0
 Multiplicity           Mult            ....    1
 Number of Electrons    NEL             ....   10
 Basis Dimension        Dim             ....   16

ORBITAL ENERGIES
----------------

  NO   OCC          E(Eh)            E(eV)
   0   2.0000     -24.744682      -673.3370
   1   2.0000      -1.170140       -31.8411
   2   2.0000      -0.429118       -11.6769
   3   2.0000      -0.429118       -11.6769
   4   2.0000      -0.400452       -10.8969
   5   0.0000      -0.206004        -5.6057
   6   0.0000       0.764498        20.8030
   7   0.0000       1.337970        36.4080
   8   0.0000       1.339771        36.4570
   9   0.0000       1.339775        36.4571

MULLIKEN ATOMIC CHARGES
-----------------------
   0 F :   -0.256775
   1 H :    0.256775
Sum of atomic charges:   -0.0000000

LOEWDIN ATOMIC CHARGES
----------------------
   0 F :   -0.258719
   1 H :    0.258719

  Mayer bond orders larger than 0.1
B(  0-F ,  1-H ) :   0.9342

Dispersion correction           -0.000218539
FINAL SINGLE POINT ENERGY      -100.089903058609

DIPOLE MOMENT
-------------
                                X             Y             Z
Electronic contribution:     -1.30441       0.00002       0.00004
Nuclear contribution   :      2.76849      -0.00000       0.00000
                        -----------------------------------------
Total Dipole Moment    :      1.46408       0.00002       0.00004
                        -----------------------------------------
Magnitude (a.u.)       :      1.46408
Magnitude (Debye)      :      3.72140

                             ****ORCA TERMINATED NORMALLY****
TOTAL RUN TIME: 0 days 0 hours 0 minutes 15 seconds 323 msec
