                         Program Version 4.0.0.2 - RELEASE -
|  1> ! WB97X-D3 6-31G(d) VerySlowConv
|  2> ! KDIIS NOSOSCF
|  3> %base "Scan_28"
|  4>
|  5> %scf
|  6> maxiter 999
|  7> end
|  8>
|  9> * xyz 0 1
| 10> F         -1.621829551550    0.936930000000    0.000000000000
| 11> H          1.638379551550    0.936930000000   -0.000000000000
| 12> **                         ****END OF INPUT****

CARTESIAN COORDINATES (ANGSTROEM)
---------------------------------
  F     -1.621830    0.936930    0.000000
  H      1.638380    0.936930   -0.000000

 Total Charge           Charge          ....    0
 Multiplicity           Mult            ....    1
 Number of Electrons    NEL             ....   10
 Basis Dimension        Dim             ....   16

ORBITAL ENERGIES
----------------

  NO   OCC          E(Eh)            E(eV)
   0   2.0000     -24.342669      -662.3977
   1   2.0000      -0.826790       -22.4981
   2   2.0000      -0.103859        -2.8261
   3   2.0000      -0.099158        -2.6982
   4   2.0000      -0.099158        -2.6982
   5   0.0000      -0.337722        -9.1899
   6   0.0000       0.609784        16.5931
   7   0.0000       1.612239        43.8713
   8   0.0000       1.618076        44.0301
   9   0.0000       1.618076        44.0301

MULLIKEN ATOMIC CHARGES
-----------------------
   0 F :   -0.997194
   1 H :    0.997194
Sum of atomic charges:   -0.0000000

LOEWDIN ATOMIC CHARGES
----------------------
   0 F :   -0.997384
   1 H :    0.997384

Dispersion correction           -0.000157603
FINAL SINGLE POINT ENERGY       -99.896548630748

DIPOLE MOMENT
-------------
                                X             Y             Z
Electronic contribution:      3.04009       0.00000      -0.00000
Nuclear contribution   :      3.05674      -0.00000       0.00000
                        -----------------------------------------
Total Dipole Moment    :      6.09682       0.00000      -0.00000
                        -----------------------------------------
Magnitude (a.u.)       :      6.09682
Magnitude (Debye)      :     15.49690

                             ****ORCA TERMINATED NORMALLY****
TOTAL RUN TIME: 0 days 0 hours 0 minutes 2 seconds 757 msec
