                         Program Version 4.0.0.2 - RELEASE -
|  1> ! WB97X-D3 6-31G(d) VerySlowConv
|  2> ! KDIIS NOSOSCF
|  3> %base "Scan_29"
|  4>
|  5> %scf
|  6> maxiter 999
|  7> end
|  8>
|  9> * xyz 0 1
| 10> F         -1.673023048919    0.936930000000    0.000000000000
| 11> H          1.689573048919    0.936930000000   -0.000000000000
| 12> **                         ****END OF INPUT****

CARTESIAN COORDINATES (ANGSTROEM)
---------------------------------
  F     -1.673023    0.936930    0.000000
  H      1.689573    0.936930   -0.000000

 Total Charge           Charge          ....    0
 Multiplicity           Mult            ....    1
 Number of Electrons    NEL             ....   10
 Basis Dimension        Dim             ....   16

ORBITAL ENERGIES
----------------

  NO   OCC          E(Eh)            E(eV)
   0   2.0000     -24.337295      -662.2515
   1   2.0000      -0.821446       -22.3527
   2   2.0000      -0.098329        -2.6757
   3   2.0000      -0.093996        -2.5578
   4   2.0000      -0.093996        -2.5578
   5   0.0000      -0.337971        -9.1967
   6   0.0000       0.610178        16.6038
   7   0.0000       1.616769        43.9945
   8   0.0000       1.623077        44.1662
   9   0.0000       1.623077        44.1662

MULLIKEN ATOMIC CHARGES
-----------------------
   0 F :   -0.998056
   1 H :    0.998056
Sum of atomic charges:    0.0000000

LOEWDIN ATOMIC CHARGES
----------------------
   0 F :   -0.998193
   1 H :    0.998193

Dispersion correction           -0.000136775
FINAL SINGLE POINT ENERGY       -99.891452381957

DIPOLE MOMENT
-------------
                                X             Y             Z
Electronic contribution:      3.14484       0.00000       0.00000
Nuclear contribution   :      3.15274      -0.00000       0.00000
                        -----------------------------------------
Total Dipole Moment    :      6.29757       0.00000       0.00000
                        -----------------------------------------
Magnitude (a.u.)       :      6.29757
Magnitude (Debye)      :     16.00716

                             ****ORCA TERMINATED NORMALLY****
TOTAL RUN TIME: 0 days 0 hours 0 minutes 11 seconds 773 msec
