                         Program Version 4.0.0.2 - RELEASE -
|  1> ! WB97X-D3 6-31G(d) VerySlowConv
|  2> ! KDIIS NOSOSCF
|  3> %base "Scan_3"
|  4>
|  5> %scf
|  6> maxiter 999
|  7> end
|  8>
|  9> * xyz 0 1
| 10> F         -0.413689585555    0.936930000000   -0.000000000000
| 11> H          0.430239585555    0.936930000000   -0.000000000000
| 12> **                         ****END OF INPUT****

CARTESIAN COORDINATES (ANGSTROEM)
---------------------------------
  F     -0.413690    0.936930   -0.000000
  H      0.430240    0.936930   -0.000000

 Total Charge           Charge          ....    0
 Multiplicity           Mult            ....    1
 Number of Electrons    NEL             ....   10
 Basis Dimension        Dim             ....   16

ORBITAL ENERGIES
----------------

  NO   OCC          E(Eh)            E(eV)
   0   2.0000     -24.756411      -673.6562
   1   2.0000      -1.315286       -35.7908
   2   2.0000      -0.642563       -17.4850
   3   2.0000      -0.488006       -13.2793
   4   2.0000      -0.488006       -13.2793
   5   0.0000       0.202527         5.5110
   6   0.0000       1.019104        27.7312
   7   0.0000       1.286446        35.0060
   8   0.0000       1.286446        35.0060
   9   0.0000       1.349425        36.7197

MULLIKEN ATOMIC CHARGES
-----------------------
   0 F :   -0.495119
   1 H :    0.495119
Sum of atomic charges:    0.0000000

LOEWDIN ATOMIC CHARGES
----------------------
   0 F :   -0.370787
   1 H :    0.370787

  Mayer bond orders larger than 0.1
B(  0-F ,  1-H ) :   0.7291

Dispersion correction           -0.000000041
FINAL SINGLE POINT ENERGY      -100.386854437614

DIPOLE MOMENT
-------------
                                X             Y             Z
Electronic contribution:     -0.09441      -0.00000      -0.00000
Nuclear contribution   :      0.79126      -0.00000       0.00000
                        -----------------------------------------
Total Dipole Moment    :      0.69685      -0.00000      -0.00000
                        -----------------------------------------
Magnitude (a.u.)       :      0.69685
Magnitude (Debye)      :      1.77125

                             ****ORCA TERMINATED NORMALLY****
TOTAL RUN TIME: 0 days 0 hours 0 minutes 10 seconds 536 msec
