                         Program Version 4.0.0.2 - RELEASE -
|  1> ! WB97X-D3 6-31G(d) VerySlowConv
|  2> ! KDIIS NOSOSCF
|  3> %base "Scan_30"
|  4>
|  5> %scf
|  6> maxiter 999
|  7> end
|  8>
|  9> * xyz 0 1
| 10> F         -1.724204957897    0.936930000000    0.000000000000
| 11> H          1.740754957897    0.936930000000   -0.000000000000
| 12> **                         ****END OF INPUT****

CARTESIAN COORDINATES (ANGSTROEM)
---------------------------------
  F     -1.724205    0.936930    0.000000
  H      1.740755    0.936930   -0.000000

 Total Charge           Charge          ....    0
 Multiplicity           Mult            ....    1
 Number of Electrons    NEL             ....   10
 Basis Dimension        Dim             ....   16

ORBITAL ENERGIES
----------------

  NO   OCC          E(Eh)            E(eV)
   0   2.0000     -24.332318      -662.1160
   1   2.0000      -0.816470       -22.2173
   2   2.0000      -0.093144        -2.5346
   3   2.0000      -0.089197        -2.4272
   4   2.0000      -0.089197        -2.4272
   5   0.0000      -0.340332        -9.2609
   6   0.0000       0.610260        16.6060
   7   0.0000       1.621386        44.1201
   8   0.0000       1.627741        44.2931
   9   0.0000       1.627741        44.2931

MULLIKEN ATOMIC CHARGES
-----------------------
   0 F :   -0.998682
   1 H :    0.998682
Sum of atomic charges:    0.0000000

LOEWDIN ATOMIC CHARGES
----------------------
   0 F :   -0.998776
   1 H :    0.998776

Dispersion correction           -0.000117419
FINAL SINGLE POINT ENERGY       -99.886666147839

DIPOLE MOMENT
-------------
                                X             Y             Z
Electronic contribution:      3.24822       0.00000       0.00000
Nuclear contribution   :      3.24871      -0.00000       0.00000
                        -----------------------------------------
Total Dipole Moment    :      6.49693       0.00000       0.00000
                        -----------------------------------------
Magnitude (a.u.)       :      6.49693
Magnitude (Debye)      :     16.51389

                             ****ORCA TERMINATED NORMALLY****
TOTAL RUN TIME: 0 days 0 hours 0 minutes 2 seconds 347 msec
