                         Program Version 4.0.0.2 - RELEASE -
|  1> ! WB97X-D3 6-31G(d) VerySlowConv
|  2> ! KDIIS NOSOSCF
|  3> %base "Scan_31"
|  4>
|  5> %scf
|  6> maxiter 999
|  7> end
|  8>
|  9> * xyz 0 1
| 10> F         -1.775378847569    0.936930000000    0.000000000000
| 11> H          1.791928847569    0.936930000000   -0.000000000000
| 12> **                         ****END OF INPUT****

CARTESIAN COORDINATES (ANGSTROEM)
---------------------------------
  F     -1.775379    0.936930    0.000000
  H      1.791929    0.936930   -0.000000

 Total Charge           Charge          ....    0
 Multiplicity           Mult            ....    1
 Number of Electrons    NEL             ....   10
 Basis Dimension        Dim             ....   16

ORBITAL ENERGIES
----------------

  NO   OCC          E(Eh)            E(eV)
   0   2.0000     -24.327678      -661.9898
   1   2.0000      -0.811833       -22.0911
   2   2.0000      -0.088284        -2.4023
   3   2.0000      -0.084716        -2.3052
   4   2.0000      -0.084716        -2.3052
   5   0.0000      -0.343094        -9.3361
   6   0.0000       0.609877        16.5956
   7   0.0000       1.625747        44.2388
   8   0.0000       1.632110        44.4120
   9   0.0000       1.632110        44.4120

MULLIKEN ATOMIC CHARGES
-----------------------
   0 F :   -0.999128
   1 H :    0.999128
Sum of atomic charges:    0.0000000

LOEWDIN ATOMIC CHARGES
----------------------
   0 F :   -0.999192
   1 H :    0.999192

Dispersion correction           -0.000100129
FINAL SINGLE POINT ENERGY       -99.882166937931

DIPOLE MOMENT
-------------
                                X             Y             Z
Electronic contribution:      3.35059      -0.00000      -0.00000
Nuclear contribution   :      3.34467      -0.00000       0.00000
                        -----------------------------------------
Total Dipole Moment    :      6.69527      -0.00000      -0.00000
                        -----------------------------------------
Magnitude (a.u.)       :      6.69527
Magnitude (Debye)      :     17.01801

                             ****ORCA TERMINATED NORMALLY****
TOTAL RUN TIME: 0 days 0 hours 0 minutes 2 seconds 821 msec
