                         Program Version 4.0.0.2 - RELEASE -
|  1> ! WB97X-D3 6-31G(d) VerySlowConv
|  2> ! KDIIS NOSOSCF
|  3> %base "Scan_32"
|  4>
|  5> %scf
|  6> maxiter 999
|  7> end
|  8>
|  9> * xyz 0 1
| 10> F         -1.826547062946    0.936930000000    0.000000000000
| 11> H          1.843097062946    0.936930000000   -0.000000000000
| 12> **                         ****END OF INPUT****

CARTESIAN COORDINATES (ANGSTROEM)
---------------------------------
  F     -1.826547    0.936930    0.000000
  H      1.843097    0.936930   -0.000000

 Total Charge           Charge          ....    0
 Multiplicity           Mult            ....    1
 Number of Electrons    NEL             ....   10
 Basis Dimension        Dim             ....   16

ORBITAL ENERGIES
----------------

  NO   OCC          E(Eh)            E(eV)
   0   2.0000     -24.323348      -661.8719
   1   2.0000      -0.807520       -21.9737
   2   2.0000      -0.083791        -2.2801
   3   2.0000      -0.080522        -2.1911
   4   2.0000      -0.080522        -2.1911
   5   0.0000      -0.346178        -9.4200
   6   0.0000       0.608836        16.5673
   7   0.0000       1.629799        44.3491
   8   0.0000       1.636209        44.5235
   9   0.0000       1.636209        44.5235

MULLIKEN ATOMIC CHARGES
-----------------------
   0 F :   -0.999436
   1 H :    0.999436
Sum of atomic charges:    0.0000000

LOEWDIN ATOMIC CHARGES
----------------------
   0 F :   -0.999477
   1 H :    0.999477

Dispersion correction           -0.000085103
FINAL SINGLE POINT ENERGY       -99.877934678247

DIPOLE MOMENT
-------------
                                X             Y             Z
Electronic contribution:      3.45216       0.00000       0.00000
Nuclear contribution   :      3.44062      -0.00000       0.00000
                        -----------------------------------------
Total Dipole Moment    :      6.89278       0.00000       0.00000
                        -----------------------------------------
Magnitude (a.u.)       :      6.89278
Magnitude (Debye)      :     17.52006

                             ****ORCA TERMINATED NORMALLY****
TOTAL RUN TIME: 0 days 0 hours 0 minutes 2 seconds 840 msec
