                         Program Version 4.0.0.2 - RELEASE -
|  1> ! WB97X-D3 6-31G(d) VerySlowConv
|  2> ! KDIIS NOSOSCF
|  3> %base "Scan_33"
|  4>
|  5> %scf
|  6> maxiter 999
|  7> end
|  8>
|  9> * xyz 0 1
| 10> F         -1.877711134678    0.936930000000    0.000000000000
| 11> H          1.894261134678    0.936930000000   -0.000000000000
| 12> **                         ****END OF INPUT****

CARTESIAN COORDINATES (ANGSTROEM)
---------------------------------
  F     -1.877711    0.936930    0.000000
  H      1.894261    0.936930   -0.000000

 Total Charge           Charge          ....    0
 Multiplicity           Mult            ....    1
 Number of Electrons    NEL             ....   10
 Basis Dimension        Dim             ....   16

ORBITAL ENERGIES
----------------

  NO   OCC          E(Eh)            E(eV)
   0   2.0000     -24.319257      -661.7606
   1   2.0000      -0.803475       -21.8637
   2   2.0000      -0.079599        -2.1660
   3   2.0000      -0.076573        -2.0836
   4   2.0000      -0.076573        -2.0836
   5   0.0000      -0.349566        -9.5122
   6   0.0000       0.607054        16.5188
   7   0.0000       1.633874        44.4600
   8   0.0000       1.640076        44.6287
   9   0.0000       1.640076        44.6287

MULLIKEN ATOMIC CHARGES
-----------------------
   0 F :   -0.999640
   1 H :    0.999640
Sum of atomic charges:   -0.0000000

LOEWDIN ATOMIC CHARGES
----------------------
   0 F :   -0.999666
   1 H :    0.999666

Dispersion correction           -0.000072272
FINAL SINGLE POINT ENERGY       -99.873949253576

DIPOLE MOMENT
-------------
                                X             Y             Z
Electronic contribution:      3.55303      -0.00000      -0.00000
Nuclear contribution   :      3.53656      -0.00000       0.00000
                        -----------------------------------------
Total Dipole Moment    :      7.08959      -0.00000      -0.00000
                        -----------------------------------------
Magnitude (a.u.)       :      7.08959
Magnitude (Debye)      :     18.02030

                             ****ORCA TERMINATED NORMALLY****
TOTAL RUN TIME: 0 days 0 hours 0 minutes 2 seconds 442 msec
