                         Program Version 4.0.0.2 - RELEASE -
|  1> ! WB97X-D3 6-31G(d) VerySlowConv
|  2> ! KDIIS NOSOSCF
|  3> %base "Scan_34"
|  4>
|  5> %scf
|  6> maxiter 999
|  7> end
|  8>
|  9> * xyz 0 1
| 10> F         -1.928872062248    0.936930000000    0.000000000000
| 11> H          1.945422062248    0.936930000000   -0.000000000000
| 12> **                         ****END OF INPUT****

CARTESIAN COORDINATES (ANGSTROEM)
---------------------------------
  F     -1.928872    0.936930    0.000000
  H      1.945422    0.936930   -0.000000

 Total Charge           Charge          ....    0
 Multiplicity           Mult            ....    1
 Number of Electrons    NEL             ....   10
 Basis Dimension        Dim             ....   16

ORBITAL ENERGIES
----------------

  NO   OCC          E(Eh)            E(eV)
   0   2.0000     -24.315392      -661.6555
   1   2.0000      -0.799658       -21.7598
   2   2.0000      -0.075643        -2.0583
   3   2.0000      -0.072845        -1.9822
   4   2.0000      -0.072845        -1.9822
   5   0.0000      -0.353205        -9.6112
   6   0.0000       0.604614        16.4524
   7   0.0000       1.638062        44.5739
   8   0.0000       1.643733        44.7282
   9   0.0000       1.643733        44.7282

MULLIKEN ATOMIC CHARGES
-----------------------
   0 F :   -0.999774
   1 H :    0.999774
Sum of atomic charges:   -0.0000000

LOEWDIN ATOMIC CHARGES
----------------------
   0 F :   -0.999790
   1 H :    0.999790

Dispersion correction           -0.000061429
FINAL SINGLE POINT ENERGY       -99.870180361070

DIPOLE MOMENT
-------------
                                X             Y             Z
Electronic contribution:      3.65323      -0.00000       0.00000
Nuclear contribution   :      3.63250      -0.00000       0.00000
                        -----------------------------------------
Total Dipole Moment    :      7.28572      -0.00000       0.00000
                        -----------------------------------------
Magnitude (a.u.)       :      7.28572
Magnitude (Debye)      :     18.51884

                             ****ORCA TERMINATED NORMALLY****
TOTAL RUN TIME: 0 days 0 hours 0 minutes 3 seconds 220 msec
