                         Program Version 4.0.0.2 - RELEASE -
|  1> ! WB97X-D3 6-31G(d) VerySlowConv
|  2> ! KDIIS NOSOSCF
|  3> %base "Scan_35"
|  4>
|  5> %scf
|  6> maxiter 999
|  7> end
|  8>
|  9> * xyz 0 1
| 10> F         -1.980030501665    0.936930000000    0.000000000000
| 11> H          1.996580501665    0.936930000000   -0.000000000000
| 12> **                         ****END OF INPUT****

CARTESIAN COORDINATES (ANGSTROEM)
---------------------------------
  F     -1.980031    0.936930    0.000000
  H      1.996581    0.936930   -0.000000

 Total Charge           Charge          ....    0
 Multiplicity           Mult            ....    1
 Number of Electrons    NEL             ....   10
 Basis Dimension        Dim             ....   16

ORBITAL ENERGIES
----------------

  NO   OCC          E(Eh)            E(eV)
   0   2.0000     -24.311796      -661.5576
   1   2.0000      -0.796066       -21.6621
   2   2.0000      -0.071914        -1.9569
   3   2.0000      -0.069341        -1.8869
   4   2.0000      -0.069341        -1.8869
   5   0.0000      -0.357005        -9.7146
   6   0.0000       0.601664        16.3721
   7   0.0000       1.642040        44.6822
   8   0.0000       1.647178        44.8220
   9   0.0000       1.647178        44.8220

MULLIKEN ATOMIC CHARGES
-----------------------
   0 F :   -0.999861
   1 H :    0.999861
Sum of atomic charges:    0.0000000

LOEWDIN ATOMIC CHARGES
----------------------
   0 F :   -0.999871
   1 H :    0.999871

Dispersion correction           -0.000052316
FINAL SINGLE POINT ENERGY       -99.866607225587

DIPOLE MOMENT
-------------
                                X             Y             Z
Electronic contribution:      3.75287      -0.00000      -0.00000
Nuclear contribution   :      3.72843      -0.00000       0.00000
                        -----------------------------------------
Total Dipole Moment    :      7.48130      -0.00000      -0.00000
                        -----------------------------------------
Magnitude (a.u.)       :      7.48130
Magnitude (Debye)      :     19.01596

                             ****ORCA TERMINATED NORMALLY****
TOTAL RUN TIME: 0 days 0 hours 0 minutes 2 seconds 346 msec
