                         Program Version 4.0.0.2 - RELEASE -
|  1> ! WB97X-D3 6-31G(d) VerySlowConv
|  2> ! KDIIS NOSOSCF
|  3> %base "Scan_38"
|  4>
|  5> %scf
|  6> maxiter 999
|  7> end
|  8>
|  9> * xyz 0 1
| 10> F         -2.133494672101    0.936930000000    0.000000000000
| 11> H          2.150044672101    0.936930000000   -0.000000000000
| 12> **                         ****END OF INPUT****

CARTESIAN COORDINATES (ANGSTROEM)
---------------------------------
  F     -2.133495    0.936930    0.000000
  H      2.150045    0.936930   -0.000000

 Total Charge           Charge          ....    0
 Multiplicity           Mult            ....    1
 Number of Electrons    NEL             ....   10
 Basis Dimension        Dim             ....   16

ORBITAL ENERGIES
----------------

  NO   OCC          E(Eh)            E(eV)
   0   2.0000     -24.302203      -661.2966
   1   2.0000      -0.786411       -21.3993
   2   2.0000      -0.061920        -1.6849
   3   2.0000      -0.059906        -1.6301
   4   2.0000      -0.059906        -1.6301
   5   0.0000      -0.368497       -10.0273
   6   0.0000       0.591223        16.0880
   7   0.0000       1.651990        44.9529
   8   0.0000       1.656479        45.0751
   9   0.0000       1.656479        45.0751

MULLIKEN ATOMIC CHARGES
-----------------------
   0 F :   -0.999971
   1 H :    0.999971
Sum of atomic charges:    0.0000000

LOEWDIN ATOMIC CHARGES
----------------------
   0 F :   -0.999973
   1 H :    0.999973

Dispersion correction           -0.000032878
FINAL SINGLE POINT ENERGY       -99.856964113931

DIPOLE MOMENT
-------------
                                X             Y             Z
Electronic contribution:      4.05044       0.00000       0.00000
Nuclear contribution   :      4.01620      -0.00000       0.00000
                        -----------------------------------------
Total Dipole Moment    :      8.06664       0.00000       0.00000
                        -----------------------------------------
Magnitude (a.u.)       :      8.06664
Magnitude (Debye)      :     20.50377

                             ****ORCA TERMINATED NORMALLY****
TOTAL RUN TIME: 0 days 0 hours 0 minutes 2 seconds 209 msec
