                         Program Version 4.0.0.2 - RELEASE -
|  1> ! WB97X-D3 6-31G(d) VerySlowConv
|  2> ! KDIIS NOSOSCF
|  3> %base "Scan_4"
|  4>
|  5> %scf
|  6> maxiter 999
|  7> end
|  8>
|  9> * xyz 0 1
| 10> F         -0.430872156563    0.936930000000   -0.000000000000
| 11> H          0.447422156563    0.936930000000   -0.000000000000
| 12> **                         ****END OF INPUT****

CARTESIAN COORDINATES (ANGSTROEM)
---------------------------------
  F     -0.430872    0.936930   -0.000000
  H      0.447422    0.936930   -0.000000

 Total Charge           Charge          ....    0
 Multiplicity           Mult            ....    1
 Number of Electrons    NEL             ....   10
 Basis Dimension        Dim             ....   16

ORBITAL ENERGIES
----------------

  NO   OCC          E(Eh)            E(eV)
   0   2.0000     -24.757804      -673.6941
   1   2.0000      -1.301505       -35.4157
   2   2.0000      -0.634239       -17.2585
   3   2.0000      -0.484249       -13.1771
   4   2.0000      -0.484249       -13.1771
   5   0.0000       0.190980         5.1968
   6   0.0000       0.974913        26.5287
   7   0.0000       1.288076        35.0503
   8   0.0000       1.288076        35.0503
   9   0.0000       1.358349        36.9626

MULLIKEN ATOMIC CHARGES
-----------------------
   0 F :   -0.497995
   1 H :    0.497995
Sum of atomic charges:   -0.0000000

LOEWDIN ATOMIC CHARGES
----------------------
   0 F :   -0.378322
   1 H :    0.378322

  Mayer bond orders larger than 0.1
B(  0-F ,  1-H ) :   0.7276

Dispersion correction           -0.000000056
FINAL SINGLE POINT ENERGY      -100.393278825817

DIPOLE MOMENT
-------------
                                X             Y             Z
Electronic contribution:     -0.10617      -0.00000      -0.00000
Nuclear contribution   :      0.82348      -0.00000       0.00000
                        -----------------------------------------
Total Dipole Moment    :      0.71731      -0.00000      -0.00000
                        -----------------------------------------
Magnitude (a.u.)       :      0.71731
Magnitude (Debye)      :      1.82326

                             ****ORCA TERMINATED NORMALLY****
TOTAL RUN TIME: 0 days 0 hours 0 minutes 2 seconds 365 msec
