                         Program Version 4.0.0.2 - RELEASE -
|  1> ! WB97X-D3 6-31G(d) VerySlowConv
|  2> ! KDIIS NOSOSCF
|  3> %base "Scan_40"
|  4>
|  5> %scf
|  6> maxiter 999
|  7> end
|  8>
|  9> * xyz 0 1
| 10> F         -2.235797021057    0.936930000000    0.000000000000
| 11> H          2.252347021057    0.936930000000   -0.000000000000
| 12> **                         ****END OF INPUT****

CARTESIAN COORDINATES (ANGSTROEM)
---------------------------------
  F     -2.235797    0.936930    0.000000
  H      2.252347    0.936930   -0.000000

 Total Charge           Charge          ....    0
 Multiplicity           Mult            ....    1
 Number of Electrons    NEL             ....   10
 Basis Dimension        Dim             ....   16

ORBITAL ENERGIES
----------------

  NO   OCC          E(Eh)            E(eV)
   0   2.0000     -24.296393      -661.1385
   1   2.0000      -0.780697       -21.2438
   2   2.0000      -0.056016        -1.5243
   3   2.0000      -0.054282        -1.4771
   4   2.0000      -0.054282        -1.4771
   5   0.0000      -0.375853       -10.2275
   6   0.0000       0.583913        15.8891
   7   0.0000       1.658371        45.1266
   8   0.0000       1.662030        45.2261
   9   0.0000       1.662030        45.2261

MULLIKEN ATOMIC CHARGES
-----------------------
   0 F :   -0.999991
   1 H :    0.999991
Sum of atomic charges:    0.0000000

LOEWDIN ATOMIC CHARGES
----------------------
   0 F :   -0.999991
   1 H :    0.999991

Dispersion correction           -0.000024517
FINAL SINGLE POINT ENERGY       -99.851281458593

DIPOLE MOMENT
-------------
                                X             Y             Z
Electronic contribution:      4.24807      -0.00000      -0.00000
Nuclear contribution   :      4.20804      -0.00000       0.00000
                        -----------------------------------------
Total Dipole Moment    :      8.45611      -0.00000      -0.00000
                        -----------------------------------------
Magnitude (a.u.)       :      8.45611
Magnitude (Debye)      :     21.49373

                             ****ORCA TERMINATED NORMALLY****
TOTAL RUN TIME: 0 days 0 hours 0 minutes 2 seconds 317 msec
