                         Program Version 4.0.0.2 - RELEASE -
|  1> ! WB97X-D3 6-31G(d) VerySlowConv
|  2> ! KDIIS NOSOSCF
|  3> %base "Scan_41"
|  4>
|  5> %scf
|  6> maxiter 999
|  7> end
|  8>
|  9> * xyz 0 1
| 10> F         -2.286946496981    0.936930000000    0.000000000000
| 11> H          2.303496496981    0.936930000000   -0.000000000000
| 12> **                         ****END OF INPUT****

CARTESIAN COORDINATES (ANGSTROEM)
---------------------------------
  F     -2.286946    0.936930    0.000000
  H      2.303496    0.936930   -0.000000

 Total Charge           Charge          ....    0
 Multiplicity           Mult            ....    1
 Number of Electrons    NEL             ....   10
 Basis Dimension        Dim             ....   16

ORBITAL ENERGIES
----------------

  NO   OCC          E(Eh)            E(eV)
   0   2.0000     -24.293760      -661.0668
   1   2.0000      -0.778062       -21.1721
   2   2.0000      -0.053323        -1.4510
   3   2.0000      -0.051685        -1.4064
   4   2.0000      -0.051685        -1.4064
   5   0.0000      -0.378953       -10.3118
   6   0.0000       0.580795        15.8042
   7   0.0000       1.661264        45.2053
   8   0.0000       1.664598        45.2960
   9   0.0000       1.664598        45.2960

MULLIKEN ATOMIC CHARGES
-----------------------
   0 F :   -0.999995
   1 H :    0.999995
Sum of atomic charges:   -0.0000000

LOEWDIN ATOMIC CHARGES
----------------------
   0 F :   -0.999995
   1 H :    0.999995

Dispersion correction           -0.000021276
FINAL SINGLE POINT ENERGY       -99.848634346487

DIPOLE MOMENT
-------------
                                X             Y             Z
Electronic contribution:      4.34655       0.00000       0.00000
Nuclear contribution   :      4.30395      -0.00000       0.00000
                        -----------------------------------------
Total Dipole Moment    :      8.65051       0.00000       0.00000
                        -----------------------------------------
Magnitude (a.u.)       :      8.65051
Magnitude (Debye)      :     21.98784

                             ****ORCA TERMINATED NORMALLY****
TOTAL RUN TIME: 0 days 0 hours 0 minutes 2 seconds 7 msec
