                         Program Version 4.0.0.2 - RELEASE -
|  1> ! WB97X-D3 6-31G(d) VerySlowConv
|  2> ! KDIIS NOSOSCF
|  3> %base "Scan_42"
|  4>
|  5> %scf
|  6> maxiter 999
|  7> end
|  8>
|  9> * xyz 0 1
| 10> F         -2.338094981872    0.936930000000    0.000000000000
| 11> H          2.354644981872    0.936930000000   -0.000000000000
| 12> **                         ****END OF INPUT****

CARTESIAN COORDINATES (ANGSTROEM)
---------------------------------
  F     -2.338095    0.936930    0.000000
  H      2.354645    0.936930   -0.000000

 Total Charge           Charge          ....    0
 Multiplicity           Mult            ....    1
 Number of Electrons    NEL             ....   10
 Basis Dimension        Dim             ....   16

ORBITAL ENERGIES
----------------

  NO   OCC          E(Eh)            E(eV)
   0   2.0000     -24.291287      -660.9995
   1   2.0000      -0.775554       -21.1039
   2   2.0000      -0.050765        -1.3814
   3   2.0000      -0.049217        -1.3393
   4   2.0000      -0.049217        -1.3393
   5   0.0000      -0.382100       -10.3975
   6   0.0000       0.577594        15.7171
   7   0.0000       1.663892        45.2768
   8   0.0000       1.667042        45.3625
   9   0.0000       1.667042        45.3625

MULLIKEN ATOMIC CHARGES
-----------------------
   0 F :   -0.999997
   1 H :    0.999997
Sum of atomic charges:    0.0000000

LOEWDIN ATOMIC CHARGES
----------------------
   0 F :   -0.999997
   1 H :    0.999997

Dispersion correction           -0.000018523
FINAL SINGLE POINT ENERGY       -99.846102064930

DIPOLE MOMENT
-------------
                                X             Y             Z
Electronic contribution:      4.44494      -0.00000       0.00000
Nuclear contribution   :      4.39987      -0.00000       0.00000
                        -----------------------------------------
Total Dipole Moment    :      8.84480      -0.00000       0.00000
                        -----------------------------------------
Magnitude (a.u.)       :      8.84480
Magnitude (Debye)      :     22.48171

                             ****ORCA TERMINATED NORMALLY****
TOTAL RUN TIME: 0 days 0 hours 0 minutes 2 seconds 363 msec
