                         Program Version 4.0.0.2 - RELEASE -
|  1> ! WB97X-D3 6-31G(d) VerySlowConv
|  2> ! KDIIS NOSOSCF
|  3> %base "Scan_5"
|  4>
|  5> %scf
|  6> maxiter 999
|  7> end
|  8>
|  9> * xyz 0 1
| 10> F         -0.452413142185    0.936930000000   -0.000000000000
| 11> H          0.468963142185    0.936930000000   -0.000000000000
| 12> **                         ****END OF INPUT****

CARTESIAN COORDINATES (ANGSTROEM)
---------------------------------
  F     -0.452413    0.936930   -0.000000
  H      0.468963    0.936930   -0.000000

 Total Charge           Charge          ....    0
 Multiplicity           Mult            ....    1
 Number of Electrons    NEL             ....   10
 Basis Dimension        Dim             ....   16

ORBITAL ENERGIES
----------------

  NO   OCC          E(Eh)            E(eV)
   0   2.0000     -24.759379      -673.7369
   1   2.0000      -1.286120       -34.9971
   2   2.0000      -0.623962       -16.9789
   3   2.0000      -0.479882       -13.0582
   4   2.0000      -0.479882       -13.0582
   5   0.0000       0.175415         4.7733
   6   0.0000       0.927234        25.2313
   7   0.0000       1.290085        35.1050
   8   0.0000       1.290085        35.1050
   9   0.0000       1.367864        37.2215

MULLIKEN ATOMIC CHARGES
-----------------------
   0 F :   -0.497043
   1 H :    0.497043
Sum of atomic charges:    0.0000000

LOEWDIN ATOMIC CHARGES
----------------------
   0 F :   -0.385098
   1 H :    0.385098

  Mayer bond orders larger than 0.1
B(  0-F ,  1-H ) :   0.7304

Dispersion correction           -0.000000082
FINAL SINGLE POINT ENERGY      -100.396319665697

DIPOLE MOMENT
-------------
                                X             Y             Z
Electronic contribution:     -0.12194      -0.00000      -0.00000
Nuclear contribution   :      0.86387      -0.00000       0.00000
                        -----------------------------------------
Total Dipole Moment    :      0.74194      -0.00000      -0.00000
                        -----------------------------------------
Magnitude (a.u.)       :      0.74194
Magnitude (Debye)      :      1.88585

                             ****ORCA TERMINATED NORMALLY****
TOTAL RUN TIME: 0 days 0 hours 0 minutes 2 seconds 575 msec
