                         Program Version 4.0.0.2 - RELEASE -
|  1> ! WB97X-D3 6-31G(d) VerySlowConv
|  2> ! KDIIS NOSOSCF
|  3> %base "Scan_6"
|  4>
|  5> %scf
|  6> maxiter 999
|  7> end
|  8>
|  9> * xyz 0 1
| 10> F         -0.479356405205    0.936930000000   -0.000000000000
| 11> H          0.495906405205    0.936930000000   -0.000000000000
| 12> **                         ****END OF INPUT****

CARTESIAN COORDINATES (ANGSTROEM)
---------------------------------
  F     -0.479356    0.936930   -0.000000
  H      0.495906    0.936930   -0.000000

 Total Charge           Charge          ....    0
 Multiplicity           Mult            ....    1
 Number of Electrons    NEL             ....   10
 Basis Dimension        Dim             ....   16

ORBITAL ENERGIES
----------------

  NO   OCC          E(Eh)            E(eV)
   0   2.0000     -24.761106      -673.7840
   1   2.0000      -1.269577       -34.5470
   2   2.0000      -0.611437       -16.6381
   3   2.0000      -0.474988       -12.9251
   4   2.0000      -0.474988       -12.9251
   5   0.0000       0.154532         4.2050
   6   0.0000       0.878491        23.9049
   7   0.0000       1.292509        35.1709
   8   0.0000       1.292509        35.1709
   9   0.0000       1.377571        37.4856

MULLIKEN ATOMIC CHARGES
-----------------------
   0 F :   -0.490334
   1 H :    0.490334
Sum of atomic charges:   -0.0000000

LOEWDIN ATOMIC CHARGES
----------------------
   0 F :   -0.389697
   1 H :    0.389697

  Mayer bond orders larger than 0.1
B(  0-F ,  1-H ) :   0.7395

Dispersion correction           -0.000000129
FINAL SINGLE POINT ENERGY      -100.394350340854

DIPOLE MOMENT
-------------
                                X             Y             Z
Electronic contribution:     -0.14365       0.00000      -0.00000
Nuclear contribution   :      0.91440      -0.00000       0.00000
                        -----------------------------------------
Total Dipole Moment    :      0.77075       0.00000      -0.00000
                        -----------------------------------------
Magnitude (a.u.)       :      0.77075
Magnitude (Debye)      :      1.95909

                             ****ORCA TERMINATED NORMALLY****
TOTAL RUN TIME: 0 days 0 hours 0 minutes 12 seconds 119 msec
