                         Program Version 4.0.0.2 - RELEASE -
|  1> ! WB97X-D3 6-31G(d) VerySlowConv
|  2> ! KDIIS NOSOSCF
|  3> %base "Scan_1"
|  4>
|  5> %scf
|  6> maxiter 999
|  7> end
|  8>
|  9> * xyz 0 1
| 10> O         -0.017574568685    1.630497502116    0.051409127689
| 11> H          0.781484521420    1.600039116364    0.021058622059
| 12> H         -0.324469952735    2.154003381521    0.573042250252
| 13> **                         ****END OF INPUT****

CARTESIAN COORDINATES (ANGSTROEM)
---------------------------------
  O     -0.017575    1.630498    0.051409
  H      0.781485    1.600039    0.021059
  H     -0.324470    2.154003    0.573042

 Total Charge           Charge          ....    0
 Multiplicity           Mult            ....    1
 Number of Electrons    NEL             ....   10
 Basis Dimension        Dim             ....   18

ORBITAL ENERGIES
----------------

  NO   OCC          E(Eh)            E(eV)
   0   2.0000     -19.200258      -522.4656
   1   2.0000      -1.186181       -32.2776
   2   2.0000      -0.717417       -19.5219
   3   2.0000      -0.466370       -12.6906
   4   2.0000      -0.405899       -11.0451
   5   0.0000       0.217406         5.9159
   6   0.0000       0.305287         8.3073
   7   0.0000       0.995321        27.0841
   8   0.0000       0.998973        27.1834
   9   0.0000       1.019748        27.7488

MULLIKEN ATOMIC CHARGES
-----------------------
   0 O :   -0.796722
   1 H :    0.398251
   2 H :    0.398472
Sum of atomic charges:   -0.0000000

LOEWDIN ATOMIC CHARGES
----------------------
   0 O :   -0.576946
   1 H :    0.288387
   2 H :    0.288559

  Mayer bond orders larger than 0.1
B(  0-O ,  1-H ) :   0.8180 B(  0-O ,  2-H ) :   0.8177

Dispersion correction           -0.000000492
FINAL SINGLE POINT ENERGY       -76.310109452730

DIPOLE MOMENT
-------------
                                X             Y             Z
Electronic contribution:      0.00004      -0.00005      -0.00005
Nuclear contribution   :      0.40966       0.41039       0.40892
                        -----------------------------------------
Total Dipole Moment    :      0.40970       0.41034       0.40887
                        -----------------------------------------
Magnitude (a.u.)       :      0.70951
Magnitude (Debye)      :      1.80344

                             ****ORCA TERMINATED NORMALLY****
TOTAL RUN TIME: 0 days 0 hours 0 minutes 3 seconds 977 msec
