                         Program Version 4.0.0.2 - RELEASE -
|  1> ! WB97X-D3 6-31G(d) VerySlowConv
|  2> ! KDIIS NOSOSCF
|  3> %base "Scan_10"
|  4>
|  5> %scf
|  6> maxiter 999
|  7> end
|  8>
|  9> * xyz 0 1
| 10> O         -0.184784171510    1.462987638584   -0.115501129796
| 11> H          1.120275390741    1.555973269103   -0.022850019397
| 12> H         -0.496051219232    2.365579092313    0.783861149193
| 13> **                         ****END OF INPUT****

CARTESIAN COORDINATES (ANGSTROEM)
---------------------------------
  O     -0.184784    1.462988   -0.115501
  H      1.120275    1.555973   -0.022850
  H     -0.496051    2.365579    0.783861

 Total Charge           Charge          ....    0
 Multiplicity           Mult            ....    1
 Number of Electrons    NEL             ....   10
 Basis Dimension        Dim             ....   18

ORBITAL ENERGIES
----------------

  NO   OCC          E(Eh)            E(eV)
   0   2.0000     -19.291270      -524.9422
   1   2.0000      -1.021172       -27.7875
   2   2.0000      -0.508165       -13.8279
   3   2.0000      -0.458606       -12.4793
   4   2.0000      -0.381090       -10.3700
   5   0.0000       0.054963         1.4956
   6   0.0000       0.107257         2.9186
   7   0.0000       0.787722        21.4350
   8   0.0000       0.813060        22.1245
   9   0.0000       0.999245        27.1908

MULLIKEN ATOMIC CHARGES
-----------------------
   0 O :   -0.605799
   1 H :    0.302603
   2 H :    0.303195
Sum of atomic charges:   -0.0000000

LOEWDIN ATOMIC CHARGES
----------------------
   0 O :   -0.539989
   1 H :    0.269804
   2 H :    0.270186

  Mayer bond orders larger than 0.1
B(  0-O ,  1-H ) :   0.8919 B(  0-O ,  2-H ) :   0.8916

Dispersion correction           -0.000020273
FINAL SINGLE POINT ENERGY       -76.274760767467

DIPOLE MOMENT
-------------
                                X             Y             Z
Electronic contribution:     -0.32371      -0.32312      -0.32196
Nuclear contribution   :      0.82719       0.82868       0.82571
                        -----------------------------------------
Total Dipole Moment    :      0.50349       0.50556       0.50375
                        -----------------------------------------
Magnitude (a.u.)       :      0.87342
Magnitude (Debye)      :      2.22004

                             ****ORCA TERMINATED NORMALLY****
TOTAL RUN TIME: 0 days 0 hours 0 minutes 3 seconds 71 msec
