                         Program Version 4.0.0.2 - RELEASE -
|  1> ! WB97X-D3 6-31G(d) VerySlowConv
|  2> ! KDIIS NOSOSCF
|  3> %base "Scan_11"
|  4>
|  5> %scf
|  6> maxiter 999
|  7> end
|  8>
|  9> * xyz 0 1
| 10> O         -0.215757222625    1.431958967565   -0.146418732856
| 11> H          1.189214473888    1.544713620839   -0.034069474271
| 12> H         -0.534017251263    2.407867411596    0.825998207126
| 13> **                         ****END OF INPUT****

CARTESIAN COORDINATES (ANGSTROEM)
---------------------------------
  O     -0.215757    1.431959   -0.146419
  H      1.189214    1.544714   -0.034069
  H     -0.534017    2.407867    0.825998

 Total Charge           Charge          ....    0
 Multiplicity           Mult            ....    1
 Number of Electrons    NEL             ....   10
 Basis Dimension        Dim             ....   18

ORBITAL ENERGIES
----------------

  NO   OCC          E(Eh)            E(eV)
   0   2.0000     -19.302989      -525.2610
   1   2.0000      -1.009781       -27.4775
   2   2.0000      -0.486882       -13.2487
   3   2.0000      -0.453556       -12.3419
   4   2.0000      -0.381795       -10.3892
   5   0.0000       0.025224         0.6864
   6   0.0000       0.068395         1.8611
   7   0.0000       0.776705        21.1352
   8   0.0000       0.823829        22.4175
   9   0.0000       0.998602        27.1734

MULLIKEN ATOMIC CHARGES
-----------------------
   0 O :   -0.532975
   1 H :    0.266112
   2 H :    0.266863
Sum of atomic charges:   -0.0000000

LOEWDIN ATOMIC CHARGES
----------------------
   0 O :   -0.495068
   1 H :    0.247251
   2 H :    0.247816

  Mayer bond orders larger than 0.1
B(  0-O ,  1-H ) :   0.9172 B(  0-O ,  2-H ) :   0.9168

Dispersion correction           -0.000040964
FINAL SINGLE POINT ENERGY       -76.229533646288

DIPOLE MOMENT
-------------
                                X             Y             Z
Electronic contribution:     -0.40635      -0.40505      -0.40360
Nuclear contribution   :      0.90454       0.90616       0.90292
                        -----------------------------------------
Total Dipole Moment    :      0.49818       0.50111       0.49932
                        -----------------------------------------
Magnitude (a.u.)       :      0.86523
Magnitude (Debye)      :      2.19924

                             ****ORCA TERMINATED NORMALLY****
TOTAL RUN TIME: 0 days 0 hours 0 minutes 2 seconds 789 msec
