                         Program Version 4.0.0.2 - RELEASE -
|  1> ! WB97X-D3 6-31G(d) VerySlowConv
|  2> ! KDIIS NOSOSCF
|  3> %base "Scan_12"
|  4>
|  5> %scf
|  6> maxiter 999
|  7> end
|  8>
|  9> * xyz 0 1
| 10> O         -0.248090366772    1.399567763213   -0.178693992024
| 11> H          1.262428192105    1.532334737557   -0.046404165284
| 12> H         -0.574897825333    2.452637499230    0.870608157308
| 13> **                         ****END OF INPUT****

CARTESIAN COORDINATES (ANGSTROEM)
---------------------------------
  O     -0.248090    1.399568   -0.178694
  H      1.262428    1.532335   -0.046404
  H     -0.574898    2.452637    0.870608

 Total Charge           Charge          ....    0
 Multiplicity           Mult            ....    1
 Number of Electrons    NEL             ....   10
 Basis Dimension        Dim             ....   18

ORBITAL ENERGIES
----------------

  NO   OCC          E(Eh)            E(eV)
   0   2.0000     -19.312781      -525.5275
   1   2.0000      -1.001832       -27.2612
   2   2.0000      -0.468187       -12.7400
   3   2.0000      -0.446914       -12.1611
   4   2.0000      -0.382929       -10.4200
   5   0.0000      -0.002456        -0.0668
   6   0.0000       0.032370         0.8808
   7   0.0000       0.777537        21.1579
   8   0.0000       0.843365        22.9491
   9   0.0000       0.998274        27.1644

MULLIKEN ATOMIC CHARGES
-----------------------
   0 O :   -0.464743
   1 H :    0.232449
   2 H :    0.232294
Sum of atomic charges:   -0.0000000

LOEWDIN ATOMIC CHARGES
----------------------
   0 O :   -0.448574
   1 H :    0.224378
   2 H :    0.224196

  Mayer bond orders larger than 0.1
B(  0-O ,  1-H ) :   0.9374 B(  0-O ,  2-H ) :   0.9375

Dispersion correction           -0.000069637
FINAL SINGLE POINT ENERGY       -76.183056873972

DIPOLE MOMENT
-------------
                                X             Y             Z
Electronic contribution:     -0.49220      -0.49250      -0.49074
Nuclear contribution   :      0.98527       0.98704       0.98351
                        -----------------------------------------
Total Dipole Moment    :      0.49307       0.49455       0.49277
                        -----------------------------------------
Magnitude (a.u.)       :      0.85470
Magnitude (Debye)      :      2.17248

                             ****ORCA TERMINATED NORMALLY****
TOTAL RUN TIME: 0 days 0 hours 0 minutes 2 seconds 816 msec
