                         Program Version 4.0.0.2 - RELEASE -
|  1> ! WB97X-D3 6-31G(d) VerySlowConv
|  2> ! KDIIS NOSOSCF
|  3> %base "Scan_13"
|  4>
|  5> %scf
|  6> maxiter 999
|  7> end
|  8>
|  9> * xyz 0 1
| 10> O         -0.282060972525    1.365536155810   -0.212603782376
| 11> H          1.337451318578    1.520279832596   -0.058416039720
| 12> H         -0.615950346052    2.498724011594    0.916529822095
| 13> **                         ****END OF INPUT****

CARTESIAN COORDINATES (ANGSTROEM)
---------------------------------
  O     -0.282061    1.365536   -0.212604
  H      1.337451    1.520280   -0.058416
  H     -0.615950    2.498724    0.916530

 Total Charge           Charge          ....    0
 Multiplicity           Mult            ....    1
 Number of Electrons    NEL             ....   10
 Basis Dimension        Dim             ....   18

ORBITAL ENERGIES
----------------

  NO   OCC          E(Eh)            E(eV)
   0   2.0000     -19.320248      -525.7307
   1   2.0000      -0.996548       -27.1174
   2   2.0000      -0.451761       -12.2930
   3   2.0000      -0.439184       -11.9508
   4   2.0000      -0.384108       -10.4521
   5   0.0000      -0.027021        -0.7353
   6   0.0000       0.000316         0.0086
   7   0.0000       0.786919        21.4131
   8   0.0000       0.867615        23.6090
   9   0.0000       0.998441        27.1690

MULLIKEN ATOMIC CHARGES
-----------------------
   0 O :   -0.405549
   1 H :    0.202801
   2 H :    0.202749
Sum of atomic charges:   -0.0000000

LOEWDIN ATOMIC CHARGES
----------------------
   0 O :   -0.404833
   1 H :    0.202424
   2 H :    0.202409

  Mayer bond orders larger than 0.1
B(  0-O ,  1-H ) :   0.9524 B(  0-O ,  2-H ) :   0.9525

Dispersion correction           -0.000108283
FINAL SINGLE POINT ENERGY       -76.137570928568

DIPOLE MOMENT
-------------
                                X             Y             Z
Electronic contribution:     -0.58201      -0.58188      -0.57981
Nuclear contribution   :      1.07010       1.07202       1.06819
                        -----------------------------------------
Total Dipole Moment    :      0.48809       0.49014       0.48837
                        -----------------------------------------
Magnitude (a.u.)       :      0.84675
Magnitude (Debye)      :      2.15226

                             ****ORCA TERMINATED NORMALLY****
TOTAL RUN TIME: 0 days 0 hours 0 minutes 3 seconds 62 msec
