                         Program Version 4.0.0.2 - RELEASE -
|  1> ! WB97X-D3 6-31G(d) VerySlowConv
|  2> ! KDIIS NOSOSCF
|  3> %base "Scan_14"
|  4>
|  5> %scf
|  6> maxiter 999
|  7> end
|  8>
|  9> * xyz 0 1
| 10> O         -0.314405403884    1.333133642833   -0.244890309689
| 11> H          1.417339443048    1.504566270281   -0.074073487019
| 12> H         -0.663494039164    2.546840086886    0.964473796708
| 13> **                         ****END OF INPUT****

CARTESIAN COORDINATES (ANGSTROEM)
---------------------------------
  O     -0.314405    1.333134   -0.244890
  H      1.417339    1.504566   -0.074073
  H     -0.663494    2.546840    0.964474

 Total Charge           Charge          ....    0
 Multiplicity           Mult            ....    1
 Number of Electrons    NEL             ....   10
 Basis Dimension        Dim             ....   18

ORBITAL ENERGIES
----------------

  NO   OCC          E(Eh)            E(eV)
   0   2.0000     -19.325646      -525.8776
   1   2.0000      -0.993281       -27.0286
   2   2.0000      -0.438004       -11.9187
   3   2.0000      -0.430338       -11.7101
   4   2.0000      -0.385321       -10.4851
   5   0.0000      -0.048672        -1.3244
   6   0.0000      -0.027302        -0.7429
   7   0.0000       0.799727        21.7617
   8   0.0000       0.890353        24.2277
   9   0.0000       0.999020        27.1847

MULLIKEN ATOMIC CHARGES
-----------------------
   0 O :   -0.356573
   1 H :    0.178515
   2 H :    0.178058
Sum of atomic charges:   -0.0000000

LOEWDIN ATOMIC CHARGES
----------------------
   0 O :   -0.365759
   1 H :    0.183056
   2 H :    0.182703

  Mayer bond orders larger than 0.1
B(  0-O ,  1-H ) :   0.9629 B(  0-O ,  2-H ) :   0.9631

Dispersion correction           -0.000154946
FINAL SINGLE POINT ENERGY       -76.094331113289

DIPOLE MOMENT
-------------
                                X             Y             Z
Electronic contribution:     -0.66800      -0.66918      -0.66680
Nuclear contribution   :      1.15087       1.15294       1.14881
                        -----------------------------------------
Total Dipole Moment    :      0.48287       0.48376       0.48200
                        -----------------------------------------
Magnitude (a.u.)       :      0.83637
Magnitude (Debye)      :      2.12588

                             ****ORCA TERMINATED NORMALLY****
TOTAL RUN TIME: 0 days 0 hours 0 minutes 3 seconds 392 msec
