                         Program Version 4.0.0.2 - RELEASE -
|  1> ! WB97X-D3 6-31G(d) VerySlowConv
|  2> ! KDIIS NOSOSCF
|  3> %base "Scan_15"
|  4>
|  5> %scf
|  6> maxiter 999
|  7> end
|  8>
|  9> * xyz 0 1
| 10> O         -0.347049613309    1.300430820021   -0.277476071870
| 11> H          1.497236467436    1.489073485445   -0.089510946826
| 12> H         -0.710746854127    2.595035694534    1.012497018695
| 13> **                         ****END OF INPUT****

CARTESIAN COORDINATES (ANGSTROEM)
---------------------------------
  O     -0.347050    1.300431   -0.277476
  H      1.497236    1.489073   -0.089511
  H     -0.710747    2.595036    1.012497

 Total Charge           Charge          ....    0
 Multiplicity           Mult            ....    1
 Number of Electrons    NEL             ....   10
 Basis Dimension        Dim             ....   18

ORBITAL ENERGIES
----------------

  NO   OCC          E(Eh)            E(eV)
   0   2.0000     -19.328964      -525.9678
   1   2.0000      -0.991273       -26.9739
   2   2.0000      -0.426026       -11.5927
   3   2.0000      -0.421343       -11.4653
   4   2.0000      -0.386273       -10.5110
   5   0.0000      -0.067085        -1.8255
   6   0.0000      -0.050754        -1.3811
   7   0.0000       0.810314        22.0498
   8   0.0000       0.905300        24.6345
   9   0.0000       1.000160        27.2157

MULLIKEN ATOMIC CHARGES
-----------------------
   0 O :   -0.318847
   1 H :    0.159572
   2 H :    0.159276
Sum of atomic charges:   -0.0000000

LOEWDIN ATOMIC CHARGES
----------------------
   0 O :   -0.333646
   1 H :    0.166929
   2 H :    0.166717

  Mayer bond orders larger than 0.1
B(  0-O ,  1-H ) :   0.9697 B(  0-O ,  2-H ) :   0.9698

Dispersion correction           -0.000194931
FINAL SINGLE POINT ENERGY       -76.054351490466

DIPOLE MOMENT
-------------
                                X             Y             Z
Electronic contribution:     -0.75238      -0.75383      -0.75116
Nuclear contribution   :      1.23238       1.23460       1.23018
                        -----------------------------------------
Total Dipole Moment    :      0.48001       0.48077       0.47902
                        -----------------------------------------
Magnitude (a.u.)       :      0.83127
Magnitude (Debye)      :      2.11292

                             ****ORCA TERMINATED NORMALLY****
TOTAL RUN TIME: 0 days 0 hours 0 minutes 3 seconds 452 msec
