                         Program Version 4.0.0.2 - RELEASE -
|  1> ! WB97X-D3 6-31G(d) VerySlowConv
|  2> ! KDIIS NOSOSCF
|  3> %base "Scan_16"
|  4>
|  5> %scf
|  6> maxiter 999
|  7> end
|  8>
|  9> * xyz 0 1
| 10> O         -0.376102679765    1.271325672152   -0.306477037082
| 11> H          1.583002390360    1.467942815798   -0.110566126375
| 12> H         -0.767459710595    2.645271512050    1.062553163457
| 13> **                         ****END OF INPUT****

CARTESIAN COORDINATES (ANGSTROEM)
---------------------------------
  O     -0.376103    1.271326   -0.306477
  H      1.583002    1.467943   -0.110566
  H     -0.767460    2.645272    1.062553

 Total Charge           Charge          ....    0
 Multiplicity           Mult            ....    1
 Number of Electrons    NEL             ....   10
 Basis Dimension        Dim             ....   18

ORBITAL ENERGIES
----------------

  NO   OCC          E(Eh)            E(eV)
   0   2.0000     -19.331059      -526.0249
   1   2.0000      -0.990146       -26.9432
   2   2.0000      -0.416018       -11.3204
   3   2.0000      -0.412168       -11.2157
   4   2.0000      -0.387211       -10.5365
   5   0.0000      -0.083207        -2.2642
   6   0.0000      -0.070572        -1.9204
   7   0.0000       0.814753        22.1705
   8   0.0000       0.906195        24.6588
   9   0.0000       1.001456        27.2510

MULLIKEN ATOMIC CHARGES
-----------------------
   0 O :   -0.289871
   1 H :    0.145533
   2 H :    0.144338
Sum of atomic charges:   -0.0000000

LOEWDIN ATOMIC CHARGES
----------------------
   0 O :   -0.307229
   1 H :    0.154165
   2 H :    0.153064

  Mayer bond orders larger than 0.1
B(  0-O ,  1-H ) :   0.9745 B(  0-O ,  2-H ) :   0.9748

Dispersion correction           -0.000227251
FINAL SINGLE POINT ENERGY       -76.017592886886

DIPOLE MOMENT
-------------
                                X             Y             Z
Electronic contribution:     -0.82725      -0.83234      -0.82938
Nuclear contribution   :      1.30493       1.30727       1.30260
                        -----------------------------------------
Total Dipole Moment    :      0.47768       0.47494       0.47321
                        -----------------------------------------
Magnitude (a.u.)       :      0.82321
Magnitude (Debye)      :      2.09243

                             ****ORCA TERMINATED NORMALLY****
TOTAL RUN TIME: 0 days 0 hours 0 minutes 4 seconds 56 msec
