                         Program Version 4.0.0.2 - RELEASE -
|  1> ! WB97X-D3 6-31G(d) VerySlowConv
|  2> ! KDIIS NOSOSCF
|  3> %base "Scan_17"
|  4>
|  5> %scf
|  6> maxiter 999
|  7> end
|  8>
|  9> * xyz 0 1
| 10> O         -0.398975756172    1.248410303992   -0.329310379069
| 11> H          1.676831357650    1.438130347397   -0.140272051069
| 12> H         -0.838415601478    2.697999348611    1.115092430139
| 13> **                         ****END OF INPUT****

CARTESIAN COORDINATES (ANGSTROEM)
---------------------------------
  O     -0.398976    1.248410   -0.329310
  H      1.676831    1.438130   -0.140272
  H     -0.838416    2.697999    1.115092

 Total Charge           Charge          ....    0
 Multiplicity           Mult            ....    1
 Number of Electrons    NEL             ....   10
 Basis Dimension        Dim             ....   18

ORBITAL ENERGIES
----------------

  NO   OCC          E(Eh)            E(eV)
   0   2.0000     -19.331804      -526.0451
   1   2.0000      -0.989265       -26.9193
   2   2.0000      -0.407454       -11.0874
   3   2.0000      -0.402879       -10.9629
   4   2.0000      -0.387715       -10.5503
   5   0.0000      -0.097195        -2.6448
   6   0.0000      -0.086853        -2.3634
   7   0.0000       0.812646        22.1132
   8   0.0000       0.893033        24.3007
   9   0.0000       1.002975        27.2923

MULLIKEN ATOMIC CHARGES
-----------------------
   0 O :   -0.269572
   1 H :    0.135269
   2 H :    0.134303
Sum of atomic charges:    0.0000000

LOEWDIN ATOMIC CHARGES
----------------------
   0 O :   -0.287417
   1 H :    0.144175
   2 H :    0.143243

  Mayer bond orders larger than 0.1
B(  0-O ,  1-H ) :   0.9783 B(  0-O ,  2-H ) :   0.9785

Dispersion correction           -0.000260950
FINAL SINGLE POINT ENERGY       -75.984310822095

DIPOLE MOMENT
-------------
                                X             Y             Z
Electronic contribution:     -0.89033      -0.89576      -0.89256
Nuclear contribution   :      1.36205       1.36450       1.35961
                        -----------------------------------------
Total Dipole Moment    :      0.47172       0.46874       0.46705
                        -----------------------------------------
Magnitude (a.u.)       :      0.81263
Magnitude (Debye)      :      2.06554

                             ****ORCA TERMINATED NORMALLY****
TOTAL RUN TIME: 0 days 0 hours 0 minutes 4 seconds 852 msec
