                         Program Version 4.0.0.2 - RELEASE -
|  1> ! WB97X-D3 6-31G(d) VerySlowConv
|  2> ! KDIIS NOSOSCF
|  3> %base "Scan_18"
|  4>
|  5> %scf
|  6> maxiter 999
|  7> end
|  8>
|  9> * xyz 0 1
| 10> O         -0.392815037078    1.254588964266   -0.323153835466
| 11> H          1.806920610731    1.368339555233   -0.209813301325
| 12> H         -0.974665573652    2.761611480501    1.178477136790
| 13> **                         ****END OF INPUT****

CARTESIAN COORDINATES (ANGSTROEM)
---------------------------------
  O     -0.392815    1.254589   -0.323154
  H      1.806921    1.368340   -0.209813
  H     -0.974666    2.761611    1.178477

 Total Charge           Charge          ....    0
 Multiplicity           Mult            ....    1
 Number of Electrons    NEL             ....   10
 Basis Dimension        Dim             ....   18

ORBITAL ENERGIES
----------------

  NO   OCC          E(Eh)            E(eV)
   0   2.0000     -19.331471      -526.0361
   1   2.0000      -0.988324       -26.8937
   2   2.0000      -0.400894       -10.9089
   3   2.0000      -0.392394       -10.6776
   4   2.0000      -0.387759       -10.5515
   5   0.0000      -0.110852        -3.0164
   6   0.0000      -0.098640        -2.6841
   7   0.0000       0.810125        22.0446
   8   0.0000       0.869208        23.6524
   9   0.0000       1.004606        27.3367

MULLIKEN ATOMIC CHARGES
-----------------------
   0 O :   -0.256231
   1 H :    0.129103
   2 H :    0.127128
Sum of atomic charges:   -0.0000000

LOEWDIN ATOMIC CHARGES
----------------------
   0 O :   -0.273231
   1 H :    0.137606
   2 H :    0.135625

  Mayer bond orders larger than 0.1
B(  0-O ,  1-H ) :   0.9823 B(  0-O ,  2-H ) :   0.9828

Dispersion correction           -0.000290303
FINAL SINGLE POINT ENERGY       -75.953863755372

DIPOLE MOMENT
-------------
                                X             Y             Z
Electronic contribution:     -0.89846      -0.90860      -0.90535
Nuclear contribution   :      1.34666       1.34907       1.34424
                        -----------------------------------------
Total Dipole Moment    :      0.44821       0.44047       0.43889
                        -----------------------------------------
Magnitude (a.u.)       :      0.76651
Magnitude (Debye)      :      1.94830

                             ****ORCA TERMINATED NORMALLY****
TOTAL RUN TIME: 0 days 0 hours 0 minutes 4 seconds 763 msec
