                         Program Version 4.0.0.2 - RELEASE -
|  1> ! WB97X-D3 6-31G(d) VerySlowConv
|  2> ! KDIIS NOSOSCF
|  3> %base "Scan_19"
|  4>
|  5> %scf
|  6> maxiter 999
|  7> end
|  8>
|  9> * xyz 0 1
| 10> O         -0.395600713774    1.251793205532   -0.325939586714
| 11> H          1.918618911959    1.314484917609   -0.263475393524
| 12> H         -1.083578198185    2.818261876859    1.234924980238
| 13> **                         ****END OF INPUT****

CARTESIAN COORDINATES (ANGSTROEM)
---------------------------------
  O     -0.395601    1.251793   -0.325940
  H      1.918619    1.314485   -0.263475
  H     -1.083578    2.818262    1.234925

 Total Charge           Charge          ....    0
 Multiplicity           Mult            ....    1
 Number of Electrons    NEL             ....   10
 Basis Dimension        Dim             ....   18

ORBITAL ENERGIES
----------------

  NO   OCC          E(Eh)            E(eV)
   0   2.0000     -19.331114      -526.0264
   1   2.0000      -0.987857       -26.8809
   2   2.0000      -0.394083       -10.7236
   3   2.0000      -0.388002       -10.5581
   4   2.0000      -0.384472       -10.4620
   5   0.0000      -0.122071        -3.3217
   6   0.0000      -0.109474        -2.9789
   7   0.0000       0.804143        21.8818
   8   0.0000       0.847651        23.0658
   9   0.0000       1.005674        27.3658

MULLIKEN ATOMIC CHARGES
-----------------------
   0 O :   -0.245963
   1 H :    0.124522
   2 H :    0.121441
Sum of atomic charges:    0.0000000

LOEWDIN ATOMIC CHARGES
----------------------
   0 O :   -0.261763
   1 H :    0.132413
   2 H :    0.129350

  Mayer bond orders larger than 0.1
B(  0-O ,  1-H ) :   0.9841 B(  0-O ,  2-H ) :   0.9849

Dispersion correction           -0.000335508
FINAL SINGLE POINT ENERGY       -75.927051907686

DIPOLE MOMENT
-------------
                                X             Y             Z
Electronic contribution:     -0.91858      -0.93354      -0.93020
Nuclear contribution   :      1.35362       1.35605       1.35119
                        -----------------------------------------
Total Dipole Moment    :      0.43504       0.42250       0.42099
                        -----------------------------------------
Magnitude (a.u.)       :      0.73824
Magnitude (Debye)      :      1.87647

                             ****ORCA TERMINATED NORMALLY****
TOTAL RUN TIME: 0 days 0 hours 0 minutes 4 seconds 884 msec
