                         Program Version 4.0.0.2 - RELEASE -
|  1> ! WB97X-D3 6-31G(d) VerySlowConv
|  2> ! KDIIS NOSOSCF
|  3> %base "Scan_2"
|  4>
|  5> %scf
|  6> maxiter 999
|  7> end
|  8>
|  9> * xyz 0 1
| 10> O         -0.026847760505    1.621207658278    0.042152537097
| 11> H          0.798320217880    1.598573600716    0.019598326972
| 12> H         -0.332032457375    2.164758741005    0.583759135931
| 13> **                         ****END OF INPUT****

CARTESIAN COORDINATES (ANGSTROEM)
---------------------------------
  O     -0.026848    1.621208    0.042153
  H      0.798320    1.598574    0.019598
  H     -0.332032    2.164759    0.583759

 Total Charge           Charge          ....    0
 Multiplicity           Mult            ....    1
 Number of Electrons    NEL             ....   10
 Basis Dimension        Dim             ....   18

ORBITAL ENERGIES
----------------

  NO   OCC          E(Eh)            E(eV)
   0   2.0000     -19.205361      -522.6044
   1   2.0000      -1.173006       -31.9191
   2   2.0000      -0.700277       -19.0555
   3   2.0000      -0.466328       -12.6894
   4   2.0000      -0.402924       -10.9641
   5   0.0000       0.210616         5.7312
   6   0.0000       0.299415         8.1475
   7   0.0000       0.998518        27.1711
   8   0.0000       0.999531        27.1986
   9   0.0000       1.001272        27.2460

MULLIKEN ATOMIC CHARGES
-----------------------
   0 O :   -0.812437
   1 H :    0.406097
   2 H :    0.406339
Sum of atomic charges:    0.0000000

LOEWDIN ATOMIC CHARGES
----------------------
   0 O :   -0.589617
   1 H :    0.294715
   2 H :    0.294902

  Mayer bond orders larger than 0.1
B(  0-O ,  1-H ) :   0.8094 B(  0-O ,  2-H ) :   0.8091

Dispersion correction           -0.000000589
FINAL SINGLE POINT ENERGY       -76.335593522001

DIPOLE MOMENT
-------------
                                X             Y             Z
Electronic contribution:     -0.00997      -0.01006      -0.01003
Nuclear contribution   :      0.43281       0.43359       0.43204
                        -----------------------------------------
Total Dipole Moment    :      0.42284       0.42353       0.42201
                        -----------------------------------------
Magnitude (a.u.)       :      0.73230
Magnitude (Debye)      :      1.86136

                             ****ORCA TERMINATED NORMALLY****
TOTAL RUN TIME: 0 days 0 hours 0 minutes 12 seconds 410 msec
