                         Program Version 4.0.0.2 - RELEASE -
|  1> ! WB97X-D3 6-31G(d) VerySlowConv
|  2> ! KDIIS NOSOSCF
|  3> %base "Scan_20"
|  4>
|  5> %scf
|  6> maxiter 999
|  7> end
|  8>
|  9> * xyz 0 1
| 10> O         -0.366597564178    1.280847147340   -0.296989644270
| 11> H          2.057205383542    1.223277006938   -0.354357140430
| 12> H         -1.251167819364    2.880415845722    1.296856784701
| 13> **                         ****END OF INPUT****

CARTESIAN COORDINATES (ANGSTROEM)
---------------------------------
  O     -0.366598    1.280847   -0.296990
  H      2.057205    1.223277   -0.354357
  H     -1.251168    2.880416    1.296857

 Total Charge           Charge          ....    0
 Multiplicity           Mult            ....    1
 Number of Electrons    NEL             ....   10
 Basis Dimension        Dim             ....   18

ORBITAL ENERGIES
----------------

  NO   OCC          E(Eh)            E(eV)
   0   2.0000     -19.329781      -525.9901
   1   2.0000      -0.987083       -26.8599
   2   2.0000      -0.388002       -10.5581
   3   2.0000      -0.387767       -10.5517
   4   2.0000      -0.376099       -10.2342
   5   0.0000      -0.133284        -3.6268
   6   0.0000      -0.117470        -3.1965
   7   0.0000       0.800901        21.7936
   8   0.0000       0.826975        22.5031
   9   0.0000       1.006737        27.3947

MULLIKEN ATOMIC CHARGES
-----------------------
   0 O :   -0.239446
   1 H :    0.120884
   2 H :    0.118561
Sum of atomic charges:   -0.0000000

LOEWDIN ATOMIC CHARGES
----------------------
   0 O :   -0.253673
   1 H :    0.127992
   2 H :    0.125682

  Mayer bond orders larger than 0.1
B(  0-O ,  1-H ) :   0.9850 B(  0-O ,  2-H ) :   0.9856

Dispersion correction           -0.000388820
FINAL SINGLE POINT ENERGY       -75.902076340521

DIPOLE MOMENT
-------------
                                X             Y             Z
Electronic contribution:     -0.88607      -0.89815      -0.89494
Nuclear contribution   :      1.28120       1.28350       1.27890
                        -----------------------------------------
Total Dipole Moment    :      0.39512       0.38535       0.38396
                        -----------------------------------------
Magnitude (a.u.)       :      0.67234
Magnitude (Debye)      :      1.70895

                             ****ORCA TERMINATED NORMALLY****
TOTAL RUN TIME: 0 days 0 hours 0 minutes 6 seconds 640 msec
