                         Program Version 4.0.0.2 - RELEASE -
|  1> ! WB97X-D3 6-31G(d) VerySlowConv
|  2> ! KDIIS NOSOSCF
|  3> %base "Scan_21"
|  4>
|  5> %scf
|  6> maxiter 999
|  7> end
|  8>
|  9> * xyz 0 1
| 10> O         -0.320228046083    1.327300633450   -0.250702439658
| 11> H          2.195372183926    1.119230651886   -0.458031393295
| 12> H         -1.435704137843    2.938008714664    1.354243832953
| 13> **                         ****END OF INPUT****

CARTESIAN COORDINATES (ANGSTROEM)
---------------------------------
  O     -0.320228    1.327301   -0.250702
  H      2.195372    1.119231   -0.458031
  H     -1.435704    2.938009    1.354244

 Total Charge           Charge          ....    0
 Multiplicity           Mult            ....    1
 Number of Electrons    NEL             ....   10
 Basis Dimension        Dim             ....   18

ORBITAL ENERGIES
----------------

  NO   OCC          E(Eh)            E(eV)
   0   2.0000     -19.327996      -525.9415
   1   2.0000      -0.986169       -26.8350
   2   2.0000      -0.387304       -10.5391
   3   2.0000      -0.381934       -10.3930
   4   2.0000      -0.368363       -10.0237
   5   0.0000      -0.143278        -3.8988
   6   0.0000      -0.124142        -3.3781
   7   0.0000       0.798725        21.7344
   8   0.0000       0.811335        22.0775
   9   0.0000       1.007556        27.4170

MULLIKEN ATOMIC CHARGES
-----------------------
   0 O :   -0.235283
   1 H :    0.117792
   2 H :    0.117491
Sum of atomic charges:   -0.0000000

LOEWDIN ATOMIC CHARGES
----------------------
   0 O :   -0.247779
   1 H :    0.124035
   2 H :    0.123743

  Mayer bond orders larger than 0.1
B(  0-O ,  1-H ) :   0.9849 B(  0-O ,  2-H ) :   0.9850

Dispersion correction           -0.000447678
FINAL SINGLE POINT ENERGY       -75.879136981710

DIPOLE MOMENT
-------------
                                X             Y             Z
Electronic contribution:     -0.82394      -0.82613      -0.82318
Nuclear contribution   :      1.16541       1.16750       1.16332
                        -----------------------------------------
Total Dipole Moment    :      0.34147       0.34137       0.34014
                        -----------------------------------------
Magnitude (a.u.)       :      0.59062
Magnitude (Debye)      :      1.50123

                             ****ORCA TERMINATED NORMALLY****
TOTAL RUN TIME: 0 days 0 hours 0 minutes 9 seconds 233 msec
