                         Program Version 4.0.0.2 - RELEASE -
|  1> ! WB97X-D3 6-31G(d) VerySlowConv
|  2> ! KDIIS NOSOSCF
|  3> %base "Scan_22"
|  4>
|  5> %scf
|  6> maxiter 999
|  7> end
|  8>
|  9> * xyz 0 1
| 10> O         -0.291989414973    1.355589381304   -0.222514952136
| 11> H          2.309170143164    1.041013390691   -0.535968938918
| 12> H         -1.577740728191    2.987937228005    1.403993891054
| 13> **                         ****END OF INPUT****

CARTESIAN COORDINATES (ANGSTROEM)
---------------------------------
  O     -0.291989    1.355589   -0.222515
  H      2.309170    1.041013   -0.535969
  H     -1.577741    2.987937    1.403994

 Total Charge           Charge          ....    0
 Multiplicity           Mult            ....    1
 Number of Electrons    NEL             ....   10
 Basis Dimension        Dim             ....   18

ORBITAL ENERGIES
----------------

  NO   OCC          E(Eh)            E(eV)
   0   2.0000     -19.326481      -525.9003
   1   2.0000      -0.985500       -26.8168
   2   2.0000      -0.387002       -10.5309
   3   2.0000      -0.375613       -10.2210
   4   2.0000      -0.362573        -9.8661
   5   0.0000      -0.150901        -4.1062
   6   0.0000      -0.130877        -3.5613
   7   0.0000       0.797403        21.6984
   8   0.0000       0.801501        21.8100
   9   0.0000       1.008071        27.4310

MULLIKEN ATOMIC CHARGES
-----------------------
   0 O :   -0.231557
   1 H :    0.115182
   2 H :    0.116375
Sum of atomic charges:    0.0000000

LOEWDIN ATOMIC CHARGES
----------------------
   0 O :   -0.242371
   1 H :    0.120592
   2 H :    0.121779

  Mayer bond orders larger than 0.1
B(  0-O ,  1-H ) :   0.9848 B(  0-O ,  2-H ) :   0.9845

Dispersion correction           -0.000491420
FINAL SINGLE POINT ENERGY       -75.859247246452

DIPOLE MOMENT
-------------
                                X             Y             Z
Electronic contribution:     -0.78897      -0.78316      -0.78036
Nuclear contribution   :      1.09489       1.09686       1.09294
                        -----------------------------------------
Total Dipole Moment    :      0.30593       0.31370       0.31258
                        -----------------------------------------
Magnitude (a.u.)       :      0.53824
Magnitude (Debye)      :      1.36810

                             ****ORCA TERMINATED NORMALLY****
TOTAL RUN TIME: 0 days 0 hours 0 minutes 5 seconds 553 msec
