                         Program Version 4.0.0.2 - RELEASE -
|  1> ! WB97X-D3 6-31G(d) VerySlowConv
|  2> ! KDIIS NOSOSCF
|  3> %base "Scan_23"
|  4>
|  5> %scf
|  6> maxiter 999
|  7> end
|  8>
|  9> * xyz 0 1
| 10> O         -0.164379747498    1.483428456745   -0.095133480092
| 11> H          2.442307220712    0.878447260821   -0.697953567287
| 12> H         -1.838487473214    3.022664282433    1.438597047378
| 13> **                         ****END OF INPUT****

CARTESIAN COORDINATES (ANGSTROEM)
---------------------------------
  O     -0.164380    1.483428   -0.095133
  H      2.442307    0.878447   -0.697954
  H     -1.838487    3.022664    1.438597

 Total Charge           Charge          ....    0
 Multiplicity           Mult            ....    1
 Number of Electrons    NEL             ....   10
 Basis Dimension        Dim             ....   18

ORBITAL ENERGIES
----------------

  NO   OCC          E(Eh)            E(eV)
   0   2.0000     -19.322960      -525.8045
   1   2.0000      -0.983653       -26.7665
   2   2.0000      -0.385633       -10.4936
   3   2.0000      -0.368862       -10.0373
   4   2.0000      -0.354933        -9.6582
   5   0.0000      -0.160419        -4.3652
   6   0.0000      -0.134405        -3.6574
   7   0.0000       0.794020        21.6064
   8   0.0000       0.800371        21.7792
   9   0.0000       1.006270        27.3820

MULLIKEN ATOMIC CHARGES
-----------------------
   0 O :   -0.230954
   1 H :    0.114532
   2 H :    0.116422
Sum of atomic charges:    0.0000000

LOEWDIN ATOMIC CHARGES
----------------------
   0 O :   -0.239852
   1 H :    0.118990
   2 H :    0.120862

  Mayer bond orders larger than 0.1
B(  0-O ,  1-H ) :   0.9818 B(  0-O ,  2-H ) :   0.9813

Dispersion correction           -0.000502785
FINAL SINGLE POINT ENERGY       -75.838059297169

DIPOLE MOMENT
-------------
                                X             Y             Z
Electronic contribution:     -0.57103      -0.56100      -0.55900
Nuclear contribution   :      0.77624       0.77764       0.77485
                        -----------------------------------------
Total Dipole Moment    :      0.20521       0.21663       0.21585
                        -----------------------------------------
Magnitude (a.u.)       :      0.36828
Magnitude (Debye)      :      0.93610

                             ****ORCA TERMINATED NORMALLY****
TOTAL RUN TIME: 0 days 0 hours 0 minutes 19 seconds 596 msec
