                         Program Version 4.0.0.2 - RELEASE -
|  1> ! WB97X-D3 6-31G(d) VerySlowConv
|  2> ! KDIIS NOSOSCF
|  3> %base "Scan_24"
|  4>
|  5> %scf
|  6> maxiter 999
|  7> end
|  8>
|  9> * xyz 0 1
| 10> O         -0.219437930018    1.428271391610   -0.150093109035
| 11> H          2.520491307489    0.880653100366   -0.695755728627
| 12> H         -1.861613377471    3.075615508025    1.491358837662
| 13> **                         ****END OF INPUT****

CARTESIAN COORDINATES (ANGSTROEM)
---------------------------------
  O     -0.219438    1.428271   -0.150093
  H      2.520491    0.880653   -0.695756
  H     -1.861613    3.075616    1.491359

 Total Charge           Charge          ....    0
 Multiplicity           Mult            ....    1
 Number of Electrons    NEL             ....   10
 Basis Dimension        Dim             ....   18

ORBITAL ENERGIES
----------------

  NO   OCC          E(Eh)            E(eV)
   0   2.0000     -19.322700      -525.7974
   1   2.0000      -0.983814       -26.7709
   2   2.0000      -0.385872       -10.5001
   3   2.0000      -0.362755        -9.8711
   4   2.0000      -0.353299        -9.6138
   5   0.0000      -0.163628        -4.4525
   6   0.0000      -0.141347        -3.8463
   7   0.0000       0.792487        21.5647
   8   0.0000       0.800785        21.7905
   9   0.0000       1.007642        27.4193

MULLIKEN ATOMIC CHARGES
-----------------------
   0 O :   -0.226490
   1 H :    0.112233
   2 H :    0.114258
Sum of atomic charges:   -0.0000000

LOEWDIN ATOMIC CHARGES
----------------------
   0 O :   -0.234198
   1 H :    0.116094
   2 H :    0.118104

  Mayer bond orders larger than 0.1
B(  0-O ,  1-H ) :   0.9817 B(  0-O ,  2-H ) :   0.9812

Dispersion correction           -0.000493477
FINAL SINGLE POINT ENERGY       -75.825235890836

DIPOLE MOMENT
-------------
                                X             Y             Z
Electronic contribution:     -0.67550      -0.66423      -0.66185
Nuclear contribution   :      0.91373       0.91537       0.91209
                        -----------------------------------------
Total Dipole Moment    :      0.23823       0.25114       0.25024
                        -----------------------------------------
Magnitude (a.u.)       :      0.42713
Magnitude (Debye)      :      1.08568

                             ****ORCA TERMINATED NORMALLY****
TOTAL RUN TIME: 0 days 0 hours 0 minutes 20 seconds 847 msec
