                         Program Version 4.0.0.2 - RELEASE -
|  1> ! WB97X-D3 6-31G(d) VerySlowConv
|  2> ! KDIIS NOSOSCF
|  3> %base "Scan_25"
|  4>
|  5> %scf
|  6> maxiter 999
|  7> end
|  8>
|  9> * xyz 0 1
| 10> O         -0.273205003424    1.374407876691   -0.203763818058
| 11> H          2.594749213989    0.883855420145   -0.692564969859
| 12> H         -1.882104210565    3.126276703165    1.541838787917
| 13> **                         ****END OF INPUT****

CARTESIAN COORDINATES (ANGSTROEM)
---------------------------------
  O     -0.273205    1.374408   -0.203764
  H      2.594749    0.883855   -0.692565
  H     -1.882104    3.126277    1.541839

 Total Charge           Charge          ....    0
 Multiplicity           Mult            ....    1
 Number of Electrons    NEL             ....   10
 Basis Dimension        Dim             ....   18

ORBITAL ENERGIES
----------------

  NO   OCC          E(Eh)            E(eV)
   0   2.0000     -19.321880      -525.7751
   1   2.0000      -0.983585       -26.7647
   2   2.0000      -0.385714       -10.4958
   3   2.0000      -0.356387        -9.6978
   4   2.0000      -0.351840        -9.5741
   5   0.0000      -0.167291        -4.5522
   6   0.0000      -0.146695        -3.9918
   7   0.0000       0.793234        21.5850
   8   0.0000       0.802122        21.8268
   9   0.0000       1.008850        27.4522

MULLIKEN ATOMIC CHARGES
-----------------------
   0 O :   -0.223399
   1 H :    0.110597
   2 H :    0.112802
Sum of atomic charges:    0.0000000

LOEWDIN ATOMIC CHARGES
----------------------
   0 O :   -0.229972
   1 H :    0.113891
   2 H :    0.116081

  Mayer bond orders larger than 0.1
B(  0-O ,  1-H ) :   0.9790 B(  0-O ,  2-H ) :   0.9785

Dispersion correction           -0.000469881
FINAL SINGLE POINT ENERGY       -75.813105020978

DIPOLE MOMENT
-------------
                                X             Y             Z
Electronic contribution:     -0.77866      -0.76609      -0.76334
Nuclear contribution   :      1.04799       1.04987       1.04611
                        -----------------------------------------
Total Dipole Moment    :      0.26933       0.28378       0.28277
                        -----------------------------------------
Magnitude (a.u.)       :      0.48273
Magnitude (Debye)      :      1.22700

                             ****ORCA TERMINATED NORMALLY****
TOTAL RUN TIME: 0 days 0 hours 0 minutes 5 seconds 416 msec
