                         Program Version 4.0.0.2 - RELEASE -
|  1> ! WB97X-D3 6-31G(d) VerySlowConv
|  2> ! KDIIS NOSOSCF
|  3> %base "Scan_26"
|  4>
|  5> %scf
|  6> maxiter 999
|  7> end
|  8>
|  9> * xyz 0 1
| 10> O         -0.325596948093    1.321921812541   -0.256062006934
| 11> H          2.665744326061    0.887658906591   -0.688775190976
| 12> H         -1.900707377968    3.174959280868    1.590347197911
| 13> **                         ****END OF INPUT****

CARTESIAN COORDINATES (ANGSTROEM)
---------------------------------
  O     -0.325597    1.321922   -0.256062
  H      2.665744    0.887659   -0.688775
  H     -1.900707    3.174959    1.590347

 Total Charge           Charge          ....    0
 Multiplicity           Mult            ....    1
 Number of Electrons    NEL             ....   10
 Basis Dimension        Dim             ....   18

ORBITAL ENERGIES
----------------

  NO   OCC          E(Eh)            E(eV)
   0   2.0000     -19.320455      -525.7363
   1   2.0000      -0.982987       -26.7484
   2   2.0000      -0.385273       -10.4838
   3   2.0000      -0.353584        -9.6215
   4   2.0000      -0.347198        -9.4477
   5   0.0000      -0.173894        -4.7319
   6   0.0000      -0.147988        -4.0270
   7   0.0000       0.795383        21.6435
   8   0.0000       0.803870        21.8744
   9   0.0000       1.010238        27.4900

MULLIKEN ATOMIC CHARGES
-----------------------
   0 O :   -0.220707
   1 H :    0.109396
   2 H :    0.111312
Sum of atomic charges:   -0.0000000

LOEWDIN ATOMIC CHARGES
----------------------
   0 O :   -0.226251
   1 H :    0.112171
   2 H :    0.114080

  Mayer bond orders larger than 0.1
B(  0-O ,  1-H ) :   0.9550 B(  0-O ,  2-H ) :   0.9546

Dispersion correction           -0.000440372
FINAL SINGLE POINT ENERGY       -75.801787242585

DIPOLE MOMENT
-------------
                                X             Y             Z
Electronic contribution:     -0.87863      -0.86759      -0.86446
Nuclear contribution   :      1.17881       1.18093       1.17670
                        -----------------------------------------
Total Dipole Moment    :      0.30018       0.31334       0.31224
                        -----------------------------------------
Magnitude (a.u.)       :      0.53459
Magnitude (Debye)      :      1.35882

                             ****ORCA TERMINATED NORMALLY****
TOTAL RUN TIME: 0 days 0 hours 0 minutes 5 seconds 695 msec
