                         Program Version 4.0.0.2 - RELEASE -
|  1> ! WB97X-D3 6-31G(d) VerySlowConv
|  2> ! KDIIS NOSOSCF
|  3> %base "Scan_27"
|  4>
|  5> %scf
|  6> maxiter 999
|  7> end
|  8>
|  9> * xyz 0 1
| 10> O         -0.328252681824    1.319261304616   -0.258712991499
| 11> H          2.756586875997    0.844151946820   -0.732126602008
| 12> H         -1.988894194173    3.221126748563    1.636349593508
| 13> **                         ****END OF INPUT****

CARTESIAN COORDINATES (ANGSTROEM)
---------------------------------
  O     -0.328253    1.319261   -0.258713
  H      2.756587    0.844152   -0.732127
  H     -1.988894    3.221127    1.636350

 Total Charge           Charge          ....    0
 Multiplicity           Mult            ....    1
 Number of Electrons    NEL             ....   10
 Basis Dimension        Dim             ....   18

ORBITAL ENERGIES
----------------

  NO   OCC          E(Eh)            E(eV)
   0   2.0000     -19.321242      -525.7577
   1   2.0000      -0.984625       -26.7930
   2   2.0000      -0.387035       -10.5317
   3   2.0000      -0.364310        -9.9134
   4   2.0000      -0.327874        -8.9219
   5   0.0000      -0.172097        -4.6830
   6   0.0000      -0.155730        -4.2376
   7   0.0000       0.801199        21.8017
   8   0.0000       0.809930        22.0393
   9   0.0000       1.004008        27.3204

MULLIKEN ATOMIC CHARGES
-----------------------
   0 O :   -0.211167
   1 H :    0.104529
   2 H :    0.106638
Sum of atomic charges:   -0.0000000

LOEWDIN ATOMIC CHARGES
----------------------
   0 O :   -0.215226
   1 H :    0.106570
   2 H :    0.108656

  Mayer bond orders larger than 0.1
B(  0-O ,  1-H ) :   0.9113 B(  0-O ,  2-H ) :   0.9108

Dispersion correction           -0.000406885
FINAL SINGLE POINT ENERGY       -75.789877370699

DIPOLE MOMENT
-------------
                                X             Y             Z
Electronic contribution:     -0.90223      -0.88970      -0.88652
Nuclear contribution   :      1.18545       1.18758       1.18332
                        -----------------------------------------
Total Dipole Moment    :      0.28322       0.29787       0.29681
                        -----------------------------------------
Magnitude (a.u.)       :      0.50699
Magnitude (Debye)      :      1.28866

                             ****ORCA TERMINATED NORMALLY****
TOTAL RUN TIME: 0 days 0 hours 0 minutes 26 seconds 74 msec
