                         Program Version 4.0.0.2 - RELEASE -
|  1> ! WB97X-D3 6-31G(d) VerySlowConv
|  2> ! KDIIS NOSOSCF
|  3> %base "Scan_28"
|  4>
|  5> %scf
|  6> maxiter 999
|  7> end
|  8>
|  9> * xyz 0 1
| 10> O         -0.377299911119    1.270125974566   -0.307672440319
| 11> H          2.826337389090    0.846065807008   -0.730219686303
| 12> H         -2.009597477971    3.268348218426    1.683402126622
| 13> **                         ****END OF INPUT****

CARTESIAN COORDINATES (ANGSTROEM)
---------------------------------
  O     -0.377300    1.270126   -0.307672
  H      2.826337    0.846066   -0.730220
  H     -2.009597    3.268348    1.683402

 Total Charge           Charge          ....    0
 Multiplicity           Mult            ....    1
 Number of Electrons    NEL             ....   10
 Basis Dimension        Dim             ....   18

ORBITAL ENERGIES
----------------

  NO   OCC          E(Eh)            E(eV)
   0   2.0000     -19.319056      -525.6982
   1   2.0000      -0.982903       -26.7462
   2   2.0000      -0.385187       -10.4815
   3   2.0000      -0.348914        -9.4944
   4   2.0000      -0.335875        -9.1396
   5   0.0000      -0.168811        -4.5936
   6   0.0000      -0.167200        -4.5497
   7   0.0000       0.803561        21.8660
   8   0.0000       0.810820        22.0635
   9   0.0000       1.006207        27.3803

MULLIKEN ATOMIC CHARGES
-----------------------
   0 O :   -0.214395
   1 H :    0.106555
   2 H :    0.107839
Sum of atomic charges:   -0.0000000

LOEWDIN ATOMIC CHARGES
----------------------
   0 O :   -0.218012
   1 H :    0.108368
   2 H :    0.109644

  Mayer bond orders larger than 0.1
B(  0-O ,  1-H ) :   0.9855 B(  0-O ,  2-H ) :   0.9852

Dispersion correction           -0.000371407
FINAL SINGLE POINT ENERGY       -75.780530242508

DIPOLE MOMENT
-------------
                                X             Y             Z
Electronic contribution:     -0.98611      -0.97878      -0.97528
Nuclear contribution   :      1.30792       1.31027       1.30558
                        -----------------------------------------
Total Dipole Moment    :      0.32181       0.33149       0.33030
                        -----------------------------------------
Magnitude (a.u.)       :      0.56793
Magnitude (Debye)      :      1.44357

                             ****ORCA TERMINATED NORMALLY****
TOTAL RUN TIME: 0 days 0 hours 0 minutes 8 seconds 190 msec
