                         Program Version 4.0.0.2 - RELEASE -
|  1> ! WB97X-D3 6-31G(d) VerySlowConv
|  2> ! KDIIS NOSOSCF
|  3> %base "Scan_29"
|  4>
|  5> %scf
|  6> maxiter 999
|  7> end
|  8>
|  9> * xyz 0 1
| 10> O         -0.425900616789    1.221438012289   -0.356186122729
| 11> H          2.894316507056    0.848531438170   -0.727762971493
| 12> H         -2.028975890267    3.314570549541    1.729459094223
| 13> **                         ****END OF INPUT****

CARTESIAN COORDINATES (ANGSTROEM)
---------------------------------
  O     -0.425901    1.221438   -0.356186
  H      2.894317    0.848531   -0.727763
  H     -2.028976    3.314571    1.729459

 Total Charge           Charge          ....    0
 Multiplicity           Mult            ....    1
 Number of Electrons    NEL             ....   10
 Basis Dimension        Dim             ....   18

ORBITAL ENERGIES
----------------

  NO   OCC          E(Eh)            E(eV)
   0   2.0000     -19.317693      -525.6612
   1   2.0000      -0.982262       -26.7287
   2   2.0000      -0.384592       -10.4653
   3   2.0000      -0.343195        -9.3388
   4   2.0000      -0.334766        -9.1094
   5   0.0000      -0.172605        -4.6968
   6   0.0000      -0.169531        -4.6132
   7   0.0000       0.807294        21.9676
   8   0.0000       0.812944        22.1213
   9   0.0000       1.006079        27.3768

MULLIKEN ATOMIC CHARGES
-----------------------
   0 O :   -0.212676
   1 H :    0.105975
   2 H :    0.106701
Sum of atomic charges:    0.0000000

LOEWDIN ATOMIC CHARGES
----------------------
   0 O :   -0.215635
   1 H :    0.107459
   2 H :    0.108175

  Mayer bond orders larger than 0.1
B(  0-O ,  1-H ) :   0.9882 B(  0-O ,  2-H ) :   0.9881

Dispersion correction           -0.000333394
FINAL SINGLE POINT ENERGY       -75.771594658485

DIPOLE MOMENT
-------------
                                X             Y             Z
Electronic contribution:     -1.07902      -1.07552      -1.07160
Nuclear contribution   :      1.42928       1.43185       1.42672
                        -----------------------------------------
Total Dipole Moment    :      0.35027       0.35633       0.35512
                        -----------------------------------------
Magnitude (a.u.)       :      0.61300
Magnitude (Debye)      :      1.55812

                             ****ORCA TERMINATED NORMALLY****
TOTAL RUN TIME: 0 days 0 hours 0 minutes 23 seconds 507 msec
