                         Program Version 4.0.0.2 - RELEASE -
|  1> ! WB97X-D3 6-31G(d) VerySlowConv
|  2> ! KDIIS NOSOSCF
|  3> %base "Scan_3"
|  4>
|  5> %scf
|  6> maxiter 999
|  7> end
|  8>
|  9> * xyz 0 1
| 10> O         -0.037594800504    1.610441320182    0.031424737396
| 11> H          0.818249990508    1.596665652602    0.017697178229
| 12> H         -0.341215190004    2.177433027216    0.596388084374
| 13> **                         ****END OF INPUT****

CARTESIAN COORDINATES (ANGSTROEM)
---------------------------------
  O     -0.037595    1.610441    0.031425
  H      0.818250    1.596666    0.017697
  H     -0.341215    2.177433    0.596388

 Total Charge           Charge          ....    0
 Multiplicity           Mult            ....    1
 Number of Electrons    NEL             ....   10
 Basis Dimension        Dim             ....   18

ORBITAL ENERGIES
----------------

  NO   OCC          E(Eh)            E(eV)
   0   2.0000     -19.211509      -522.7717
   1   2.0000      -1.157899       -31.5080
   2   2.0000      -0.681314       -18.5395
   3   2.0000      -0.466201       -12.6860
   4   2.0000      -0.399638       -10.8747
   5   0.0000       0.202237         5.5032
   6   0.0000       0.291482         7.9316
   7   0.0000       0.973379        26.4870
   8   0.0000       1.000065        27.2132
   9   0.0000       1.008068        27.4309

MULLIKEN ATOMIC CHARGES
-----------------------
   0 O :   -0.824968
   1 H :    0.412366
   2 H :    0.412603
Sum of atomic charges:   -0.0000000

LOEWDIN ATOMIC CHARGES
----------------------
   0 O :   -0.602311
   1 H :    0.301064
   2 H :    0.301247

  Mayer bond orders larger than 0.1
B(  0-O ,  1-H ) :   0.8020 B(  0-O ,  2-H ) :   0.8017

Dispersion correction           -0.000000727
FINAL SINGLE POINT ENERGY       -76.357632645454

DIPOLE MOMENT
-------------
                                X             Y             Z
Electronic contribution:     -0.02266      -0.02278      -0.02270
Nuclear contribution   :      0.45965       0.46048       0.45883
                        -----------------------------------------
Total Dipole Moment    :      0.43699       0.43769       0.43613
                        -----------------------------------------
Magnitude (a.u.)       :      0.75679
Magnitude (Debye)      :      1.92362

                             ****ORCA TERMINATED NORMALLY****
TOTAL RUN TIME: 0 days 0 hours 0 minutes 3 seconds 145 msec
