                         Program Version 4.0.0.2 - RELEASE -
|  1> ! WB97X-D3 6-31G(d) VerySlowConv
|  2> ! KDIIS NOSOSCF
|  3> %base "Scan_30"
|  4>
|  5> %scf
|  6> maxiter 999
|  7> end
|  8>
|  9> * xyz 0 1
| 10> O         -0.473735213594    1.173517495190   -0.403935107053
| 11> H          2.960492170891    0.851324807055   -0.724979689161
| 12> H         -2.047316957297    3.359697697755    1.774424796215
| 13> **                         ****END OF INPUT****

CARTESIAN COORDINATES (ANGSTROEM)
---------------------------------
  O     -0.473735    1.173517   -0.403935
  H      2.960492    0.851325   -0.724980
  H     -2.047317    3.359698    1.774425

 Total Charge           Charge          ....    0
 Multiplicity           Mult            ....    1
 Number of Electrons    NEL             ....   10
 Basis Dimension        Dim             ....   18

ORBITAL ENERGIES
----------------

  NO   OCC          E(Eh)            E(eV)
   0   2.0000     -19.316488      -525.6284
   1   2.0000      -0.981709       -26.7137
   2   2.0000      -0.384086       -10.4515
   3   2.0000      -0.338616        -9.2142
   4   2.0000      -0.332882        -9.0582
   5   0.0000      -0.175507        -4.7758
   6   0.0000      -0.172195        -4.6857
   7   0.0000       0.810777        22.0624
   8   0.0000       0.814938        22.1756
   9   0.0000       1.005623        27.3644

MULLIKEN ATOMIC CHARGES
-----------------------
   0 O :   -0.210773
   1 H :    0.105318
   2 H :    0.105455
Sum of atomic charges:   -0.0000000

LOEWDIN ATOMIC CHARGES
----------------------
   0 O :   -0.213158
   1 H :    0.106509
   2 H :    0.106649

  Mayer bond orders larger than 0.1
B(  0-O ,  1-H ) :   0.9888 B(  0-O ,  2-H ) :   0.9888

Dispersion correction           -0.000294655
FINAL SINGLE POINT ENERGY       -75.763352369894

DIPOLE MOMENT
-------------
                                X             Y             Z
Electronic contribution:     -1.17135      -1.17185      -1.16766
Nuclear contribution   :      1.54873       1.55151       1.54596
                        -----------------------------------------
Total Dipole Moment    :      0.37738       0.37966       0.37830
                        -----------------------------------------
Magnitude (a.u.)       :      0.65549
Magnitude (Debye)      :      1.66611

                             ****ORCA TERMINATED NORMALLY****
TOTAL RUN TIME: 0 days 0 hours 0 minutes 17 seconds 402 msec
