                         Program Version 4.0.0.2 - RELEASE -
|  1> ! WB97X-D3 6-31G(d) VerySlowConv
|  2> ! KDIIS NOSOSCF
|  3> %base "Scan_31"
|  4>
|  5> %scf
|  6> maxiter 999
|  7> end
|  8>
|  9> * xyz 0 1
| 10> O         -0.524926024639    1.122234726152   -0.455034308045
| 11> H          3.022246494043    0.858854466382   -0.717477057420
| 12> H         -2.057880469403    3.403450807467    1.818021365465
| 13> **                         ****END OF INPUT****

CARTESIAN COORDINATES (ANGSTROEM)
---------------------------------
  O     -0.524926    1.122235   -0.455034
  H      3.022246    0.858854   -0.717477
  H     -2.057880    3.403451    1.818021

 Total Charge           Charge          ....    0
 Multiplicity           Mult            ....    1
 Number of Electrons    NEL             ....   10
 Basis Dimension        Dim             ....   18

ORBITAL ENERGIES
----------------

  NO   OCC          E(Eh)            E(eV)
   0   2.0000     -19.315370      -525.5979
   1   2.0000      -0.981214       -26.7002
   2   2.0000      -0.383634       -10.4392
   3   2.0000      -0.334970        -9.1150
   4   2.0000      -0.330432        -8.9915
   5   0.0000      -0.177664        -4.8345
   6   0.0000      -0.175139        -4.7658
   7   0.0000       0.813841        22.1457
   8   0.0000       0.816697        22.2234
   9   0.0000       1.005056        27.3490

MULLIKEN ATOMIC CHARGES
-----------------------
   0 O :   -0.208763
   1 H :    0.104509
   2 H :    0.104254
Sum of atomic charges:    0.0000000

LOEWDIN ATOMIC CHARGES
----------------------
   0 O :   -0.210665
   1 H :    0.105459
   2 H :    0.105205

  Mayer bond orders larger than 0.1
B(  0-O ,  1-H ) :   0.9890 B(  0-O ,  2-H ) :   0.9891

Dispersion correction           -0.000257209
FINAL SINGLE POINT ENERGY       -75.755791650435

DIPOLE MOMENT
-------------
                                X             Y             Z
Electronic contribution:     -1.27156      -1.27504      -1.27049
Nuclear contribution   :      1.67656       1.67957       1.67356
                        -----------------------------------------
Total Dipole Moment    :      0.40500       0.40453       0.40306
                        -----------------------------------------
Magnitude (a.u.)       :      0.70009
Magnitude (Debye)      :      1.77950

                             ****ORCA TERMINATED NORMALLY****
TOTAL RUN TIME: 0 days 0 hours 0 minutes 24 seconds 563 msec
