                         Program Version 4.0.0.2 - RELEASE -
|  1> ! WB97X-D3 6-31G(d) VerySlowConv
|  2> ! KDIIS NOSOSCF
|  3> %base "Scan_32"
|  4>
|  5> %scf
|  6> maxiter 999
|  7> end
|  8>
|  9> * xyz 0 1
| 10> O         -0.575441324863    1.071628696822   -0.505459191736
| 11> H          3.082230144312    0.866763496235   -0.709596410148
| 12> H         -2.067348819449    3.446147806942    1.860565601884
| 13> **                         ****END OF INPUT****

CARTESIAN COORDINATES (ANGSTROEM)
---------------------------------
  O     -0.575441    1.071629   -0.505459
  H      3.082230    0.866763   -0.709596
  H     -2.067349    3.446148    1.860566

 Total Charge           Charge          ....    0
 Multiplicity           Mult            ....    1
 Number of Electrons    NEL             ....   10
 Basis Dimension        Dim             ....   18

ORBITAL ENERGIES
----------------

  NO   OCC          E(Eh)            E(eV)
   0   2.0000     -19.314266      -525.5679
   1   2.0000      -0.980721       -26.6868
   2   2.0000      -0.383178       -10.4268
   3   2.0000      -0.331667        -9.0251
   4   2.0000      -0.328002        -8.9254
   5   0.0000      -0.179688        -4.8896
   6   0.0000      -0.177851        -4.8396
   7   0.0000       0.816249        22.2113
   8   0.0000       0.818111        22.2619
   9   0.0000       1.004582        27.3361

MULLIKEN ATOMIC CHARGES
-----------------------
   0 O :   -0.206808
   1 H :    0.103520
   2 H :    0.103288
Sum of atomic charges:   -0.0000000

LOEWDIN ATOMIC CHARGES
----------------------
   0 O :   -0.208310
   1 H :    0.104271
   2 H :    0.104039

  Mayer bond orders larger than 0.1
B(  0-O ,  1-H ) :   0.9892 B(  0-O ,  2-H ) :   0.9893

Dispersion correction           -0.000222490
FINAL SINGLE POINT ENERGY       -75.748839529916

DIPOLE MOMENT
-------------
                                X             Y             Z
Electronic contribution:     -1.37281      -1.37638      -1.37152
Nuclear contribution   :      1.80270       1.80593       1.79947
                        -----------------------------------------
Total Dipole Moment    :      0.42989       0.42956       0.42795
                        -----------------------------------------
Magnitude (a.u.)       :      0.74328
Magnitude (Debye)      :      1.88926

                             ****ORCA TERMINATED NORMALLY****
TOTAL RUN TIME: 0 days 0 hours 0 minutes 14 seconds 809 msec
