                         Program Version 4.0.0.2 - RELEASE -
|  1> ! WB97X-D3 6-31G(d) VerySlowConv
|  2> ! KDIIS NOSOSCF
|  3> %base "Scan_33"
|  4>
|  5> %scf
|  6> maxiter 999
|  7> end
|  8>
|  9> * xyz 0 1
| 10> O         -0.625231011042    1.021749581938   -0.555159762992
| 11> H          3.140596692927    0.874937334750   -0.701451899504
| 12> H         -2.075925681885    3.487853083312    1.902121662496
| 13> **                         ****END OF INPUT****

CARTESIAN COORDINATES (ANGSTROEM)
---------------------------------
  O     -0.625231    1.021750   -0.555160
  H      3.140597    0.874937   -0.701452
  H     -2.075926    3.487853    1.902122

 Total Charge           Charge          ....    0
 Multiplicity           Mult            ....    1
 Number of Electrons    NEL             ....   10
 Basis Dimension        Dim             ....   18

ORBITAL ENERGIES
----------------

  NO   OCC          E(Eh)            E(eV)
   0   2.0000     -19.313440      -525.5454
   1   2.0000      -0.980374       -26.6773
   2   2.0000      -0.382858       -10.4181
   3   2.0000      -0.328534        -8.9399
   4   2.0000      -0.325870        -8.8674
   5   0.0000      -0.181799        -4.9470
   6   0.0000      -0.180203        -4.9036
   7   0.0000       0.818122        22.2622
   8   0.0000       0.819294        22.2941
   9   0.0000       1.004143        27.3241

MULLIKEN ATOMIC CHARGES
-----------------------
   0 O :   -0.204747
   1 H :    0.102724
   2 H :    0.102023
Sum of atomic charges:    0.0000000

LOEWDIN ATOMIC CHARGES
----------------------
   0 O :   -0.205923
   1 H :    0.103311
   2 H :    0.102612

  Mayer bond orders larger than 0.1
B(  0-O ,  1-H ) :   0.9894 B(  0-O ,  2-H ) :   0.9896

Dispersion correction           -0.000191418
FINAL SINGLE POINT ENERGY       -75.742469418479

DIPOLE MOMENT
-------------
                                X             Y             Z
Electronic contribution:     -1.47110      -1.47836      -1.47307
Nuclear contribution   :      1.92703       1.93049       1.92358
                        -----------------------------------------
Total Dipole Moment    :      0.45593       0.45213       0.45050
                        -----------------------------------------
Magnitude (a.u.)       :      0.78438
Magnitude (Debye)      :      1.99372

                             ****ORCA TERMINATED NORMALLY****
TOTAL RUN TIME: 0 days 0 hours 0 minutes 19 seconds 291 msec
