                         Program Version 4.0.0.2 - RELEASE -
|  1> ! WB97X-D3 6-31G(d) VerySlowConv
|  2> ! KDIIS NOSOSCF
|  3> %base "Scan_34"
|  4>
|  5> %scf
|  6> maxiter 999
|  7> end
|  8>
|  9> * xyz 0 1
| 10> O         -0.674343000795    0.972549381409   -0.604183850084
| 11> H          3.197541504828    0.883314126729   -0.693105159628
| 12> H         -2.083758504033    3.528676491862    1.942799009712
| 13> **                         ****END OF INPUT****

CARTESIAN COORDINATES (ANGSTROEM)
---------------------------------
  O     -0.674343    0.972549   -0.604184
  H      3.197542    0.883314   -0.693105
  H     -2.083759    3.528676    1.942799

 Total Charge           Charge          ....    0
 Multiplicity           Mult            ....    1
 Number of Electrons    NEL             ....   10
 Basis Dimension        Dim             ....   18

ORBITAL ENERGIES
----------------

  NO   OCC          E(Eh)            E(eV)
   0   2.0000     -19.345537      -526.4188
   1   2.0000      -1.008473       -27.4420
   2   2.0000      -0.415053       -11.2942
   3   2.0000      -0.414839       -11.2883
   4   2.0000      -0.286386        -7.7929
   5   0.0000      -0.200761        -5.4630
   6   0.0000      -0.136343        -3.7101
   7   0.0000       0.832411        22.6511
   8   0.0000       0.834012        22.6946
   9   0.0000       0.985114        26.8063

MULLIKEN ATOMIC CHARGES
-----------------------
   0 O :   -0.107112
   1 H :    0.058878
   2 H :    0.048234
Sum of atomic charges:   -0.0000000

LOEWDIN ATOMIC CHARGES
----------------------
   0 O :   -0.107403
   1 H :    0.059006
   2 H :    0.048397

  Mayer bond orders larger than 0.1
B(  0-O ,  1-H ) :   0.1043 B(  0-O ,  2-H ) :   0.1054 B(  1-H ,  2-H ) :   0.8923

Dispersion correction           -0.000164258
FINAL SINGLE POINT ENERGY       -75.767172708017

DIPOLE MOMENT
-------------
                                X             Y             Z
Electronic contribution:     -1.74812      -1.82948      -1.82294
Nuclear contribution   :      2.04966       2.05334       2.04599
                        -----------------------------------------
Total Dipole Moment    :      0.30154       0.22386       0.22306
                        -----------------------------------------
Magnitude (a.u.)       :      0.43680
Magnitude (Debye)      :      1.11026

                             ****ORCA TERMINATED NORMALLY****
TOTAL RUN TIME: 0 days 0 hours 0 minutes 17 seconds 633 msec
