                         Program Version 4.0.0.2 - RELEASE -
|  1> ! WB97X-D3 6-31G(d) VerySlowConv
|  2> ! KDIIS NOSOSCF
|  3> %base "Scan_35"
|  4>
|  5> %scf
|  6> maxiter 999
|  7> end
|  8>
|  9> * xyz 0 1
| 10> O         -0.722829406038    0.923975890504   -0.652583470876
| 11> H          3.253228214700    0.891851062607   -0.684598847133
| 12> H         -2.090958808661    3.568713046889    1.982692318009
| 13> **                         ****END OF INPUT****

CARTESIAN COORDINATES (ANGSTROEM)
---------------------------------
  O     -0.722829    0.923976   -0.652583
  H      3.253228    0.891851   -0.684599
  H     -2.090959    3.568713    1.982692

 Total Charge           Charge          ....    0
 Multiplicity           Mult            ....    1
 Number of Electrons    NEL             ....   10
 Basis Dimension        Dim             ....   18

ORBITAL ENERGIES
----------------

  NO   OCC          E(Eh)            E(eV)
   0   2.0000     -19.350723      -526.5599
   1   2.0000      -1.012803       -27.5598
   2   2.0000      -0.419422       -11.4131
   3   2.0000      -0.419191       -11.4068
   4   2.0000      -0.284006        -7.7282
   5   0.0000      -0.200045        -5.4435
   6   0.0000      -0.139526        -3.7967
   7   0.0000       0.835185        22.7265
   8   0.0000       0.836529        22.7631
   9   0.0000       0.981036        26.6954

MULLIKEN ATOMIC CHARGES
-----------------------
   0 O :   -0.095164
   1 H :    0.052977
   2 H :    0.042187
Sum of atomic charges:   -0.0000000

LOEWDIN ATOMIC CHARGES
----------------------
   0 O :   -0.095365
   1 H :    0.053063
   2 H :    0.042303

  Mayer bond orders larger than 0.1
B(  1-H ,  2-H ) :   0.9051

Dispersion correction           -0.000140877
FINAL SINGLE POINT ENERGY       -75.765751334528

DIPOLE MOMENT
-------------
                                X             Y             Z
Electronic contribution:     -1.88278      -1.96652      -1.95948
Nuclear contribution   :      2.17074       2.17464       2.16685
                        -----------------------------------------
Total Dipole Moment    :      0.28796       0.20812       0.20737
                        -----------------------------------------
Magnitude (a.u.)       :      0.41138
Magnitude (Debye)      :      1.04566

                             ****ORCA TERMINATED NORMALLY****
TOTAL RUN TIME: 0 days 0 hours 1 minutes 23 seconds 805 msec
