                         Program Version 4.0.0.2 - RELEASE -
|  1> ! WB97X-D3 6-31G(d) VerySlowConv
|  2> ! KDIIS NOSOSCF
|  3> %base "Scan_36"
|  4>
|  5> %scf
|  6> maxiter 999
|  7> end
|  8>
|  9> * xyz 0 1
| 10> O         -0.770741656834    0.875977582698   -0.700409967454
| 11> H          3.307792762581    0.900518693810   -0.675962305408
| 12> H         -2.097611105747    3.608043723493    2.021882272862
| 13> **                         ****END OF INPUT****

CARTESIAN COORDINATES (ANGSTROEM)
---------------------------------
  O     -0.770742    0.875978   -0.700410
  H      3.307793    0.900519   -0.675962
  H     -2.097611    3.608044    2.021882

 Total Charge           Charge          ....    0
 Multiplicity           Mult            ....    1
 Number of Electrons    NEL             ....   10
 Basis Dimension        Dim             ....   18

ORBITAL ENERGIES
----------------

  NO   OCC          E(Eh)            E(eV)
   0   2.0000     -19.311354      -525.4886
   1   2.0000      -0.979447       -26.6521
   2   2.0000      -0.381994       -10.3946
   3   2.0000      -0.320973        -8.7341
   4   2.0000      -0.319707        -8.6997
   5   0.0000      -0.187249        -5.0953
   6   0.0000      -0.186534        -5.0759
   7   0.0000       0.821046        22.3418
   8   0.0000       0.821303        22.3488
   9   0.0000       1.003596        27.3092

MULLIKEN ATOMIC CHARGES
-----------------------
   0 O :   -0.199249
   1 H :    0.100009
   2 H :    0.099240
Sum of atomic charges:    0.0000000

LOEWDIN ATOMIC CHARGES
----------------------
   0 O :   -0.199784
   1 H :    0.100276
   2 H :    0.099508

  Mayer bond orders larger than 0.1
B(  0-O ,  1-H ) :   0.9900 B(  0-O ,  2-H ) :   0.9902

Dispersion correction           -0.000120933
FINAL SINGLE POINT ENERGY       -75.726357136166

DIPOLE MOMENT
-------------
                                X             Y             Z
Electronic contribution:     -1.76599      -1.77472      -1.76818
Nuclear contribution   :      2.29038       2.29449       2.28628
                        -----------------------------------------
Total Dipole Moment    :      0.52439       0.51977       0.51810
                        -----------------------------------------
Magnitude (a.u.)       :      0.90198
Magnitude (Debye)      :      2.29265

                             ****ORCA TERMINATED NORMALLY****
TOTAL RUN TIME: 0 days 0 hours 0 minutes 8 seconds 398 msec
