                         Program Version 4.0.0.2 - RELEASE -
|  1> ! WB97X-D3 6-31G(d) VerySlowConv
|  2> ! KDIIS NOSOSCF
|  3> %base "Scan_37"
|  4>
|  5> %scf
|  6> maxiter 999
|  7> end
|  8>
|  9> * xyz 0 1
| 10> O         -0.818128226153    0.828505902496   -0.747711721504
| 11> H          3.361349283851    0.909296269552   -0.667216211149
| 12> H         -2.103781057698    3.646737827952    2.060437932653
| 13> **                         ****END OF INPUT****

CARTESIAN COORDINATES (ANGSTROEM)
---------------------------------
  O     -0.818128    0.828506   -0.747712
  H      3.361349    0.909296   -0.667216
  H     -2.103781    3.646738    2.060438

 Total Charge           Charge          ....    0
 Multiplicity           Mult            ....    1
 Number of Electrons    NEL             ....   10
 Basis Dimension        Dim             ....   18

ORBITAL ENERGIES
----------------

  NO   OCC          E(Eh)            E(eV)
   0   2.0000     -19.359949      -526.8110
   1   2.0000      -1.020381       -27.7660
   2   2.0000      -0.427041       -11.6204
   3   2.0000      -0.426743       -11.6123
   4   2.0000      -0.280030        -7.6200
   5   0.0000      -0.198855        -5.4111
   6   0.0000      -0.145256        -3.9526
   7   0.0000       0.839609        22.8469
   8   0.0000       0.840378        22.8678
   9   0.0000       0.974138        26.5076

MULLIKEN ATOMIC CHARGES
-----------------------
   0 O :   -0.074785
   1 H :    0.041213
   2 H :    0.033571
Sum of atomic charges:   -0.0000000

LOEWDIN ATOMIC CHARGES
----------------------
   0 O :   -0.074881
   1 H :    0.041254
   2 H :    0.033627

  Mayer bond orders larger than 0.1
B(  1-H ,  2-H ) :   0.9259

Dispersion correction           -0.000104005
FINAL SINGLE POINT ENERGY       -75.763540305547

DIPOLE MOMENT
-------------
                                X             Y             Z
Electronic contribution:     -2.16573      -2.22797      -2.21998
Nuclear contribution   :      2.40871       2.41303       2.40439
                        -----------------------------------------
Total Dipole Moment    :      0.24298       0.18506       0.18441
                        -----------------------------------------
Magnitude (a.u.)       :      0.35678
Magnitude (Debye)      :      0.90687

                             ****ORCA TERMINATED NORMALLY****
TOTAL RUN TIME: 0 days 0 hours 0 minutes 9 seconds 700 msec
