                         Program Version 4.0.0.2 - RELEASE -
|  1> ! WB97X-D3 6-31G(d) VerySlowConv
|  2> ! KDIIS NOSOSCF
|  3> %base "Scan_38"
|  4>
|  5> %scf
|  6> maxiter 999
|  7> end
|  8>
|  9> * xyz 0 1
| 10> O         -0.865034378049    0.781515503898   -0.794533916710
| 11> H          3.413993714312    0.918169745388   -0.658374558680
| 12> H         -2.109519336263    3.684854750714    2.098418475390
| 13> **                         ****END OF INPUT****

CARTESIAN COORDINATES (ANGSTROEM)
---------------------------------
  O     -0.865034    0.781516   -0.794534
  H      3.413994    0.918170   -0.658375
  H     -2.109519    3.684855    2.098418

 Total Charge           Charge          ....    0
 Multiplicity           Mult            ....    1
 Number of Electrons    NEL             ....   10
 Basis Dimension        Dim             ....   18

ORBITAL ENERGIES
----------------

  NO   OCC          E(Eh)            E(eV)
   0   2.0000     -19.310450      -525.4641
   1   2.0000      -0.979038       -26.6410
   2   2.0000      -0.381621       -10.3844
   3   2.0000      -0.316961        -8.6249
   4   2.0000      -0.316199        -8.6042
   5   0.0000      -0.190521        -5.1843
   6   0.0000      -0.190112        -5.1732
   7   0.0000       0.821687        22.3592
   8   0.0000       0.821762        22.3613
   9   0.0000       1.003553        27.3081

MULLIKEN ATOMIC CHARGES
-----------------------
   0 O :   -0.195952
   1 H :    0.098262
   2 H :    0.097690
Sum of atomic charges:   -0.0000000

LOEWDIN ATOMIC CHARGES
----------------------
   0 O :   -0.196255
   1 H :    0.098414
   2 H :    0.097842

  Mayer bond orders larger than 0.1
B(  0-O ,  1-H ) :   0.9903 B(  0-O ,  2-H ) :   0.9905

Dispersion correction           -0.000089665
FINAL SINGLE POINT ENERGY       -75.717691718044

DIPOLE MOMENT
-------------
                                X             Y             Z
Electronic contribution:     -1.95946      -1.96725      -1.96013
Nuclear contribution   :      2.52583       2.53037       2.52131
                        -----------------------------------------
Total Dipole Moment    :      0.56638       0.56312       0.56119
                        -----------------------------------------
Magnitude (a.u.)       :      0.97613
Magnitude (Debye)      :      2.48111

                             ****ORCA TERMINATED NORMALLY****
TOTAL RUN TIME: 0 days 0 hours 0 minutes 6 seconds 739 msec
