                         Program Version 4.0.0.2 - RELEASE -
|  1> ! WB97X-D3 6-31G(d) VerySlowConv
|  2> ! KDIIS NOSOSCF
|  3> %base "Scan_39"
|  4>
|  5> %scf
|  6> maxiter 999
|  7> end
|  8>
|  9> * xyz 0 1
| 10> O         -0.911501433042    0.734964986965   -0.840917804820
| 11> H          3.465807704722    0.927129270201   -0.649447163982
| 12> H         -2.114866271680    3.722445742834    2.135874968802
| 13> **                         ****END OF INPUT****

CARTESIAN COORDINATES (ANGSTROEM)
---------------------------------
  O     -0.911501    0.734965   -0.840918
  H      3.465808    0.927129   -0.649447
  H     -2.114866    3.722446    2.135875

 Total Charge           Charge          ....    0
 Multiplicity           Mult            ....    1
 Number of Electrons    NEL             ....   10
 Basis Dimension        Dim             ....   18

ORBITAL ENERGIES
----------------

  NO   OCC          E(Eh)            E(eV)
   0   2.0000     -19.310210      -525.4575
   1   2.0000      -0.978947       -26.6385
   2   2.0000      -0.381537       -10.3822
   3   2.0000      -0.315214        -8.5774
   4   2.0000      -0.314644        -8.5619
   5   0.0000      -0.192078        -5.2267
   6   0.0000      -0.191771        -5.2184
   7   0.0000       0.821802        22.3624
   8   0.0000       0.821840        22.3634
   9   0.0000       1.003606        27.3095

MULLIKEN ATOMIC CHARGES
-----------------------
   0 O :   -0.194340
   1 H :    0.097344
   2 H :    0.096996
Sum of atomic charges:   -0.0000000

LOEWDIN ATOMIC CHARGES
----------------------
   0 O :   -0.194566
   1 H :    0.097457
   2 H :    0.097109

  Mayer bond orders larger than 0.1
B(  0-O ,  1-H ) :   0.9905 B(  0-O ,  2-H ) :   0.9906

Dispersion correction           -0.000077521
FINAL SINGLE POINT ENERGY       -75.713864627417

DIPOLE MOMENT
-------------
                                X             Y             Z
Electronic contribution:     -2.05596      -2.06220      -2.05489
Nuclear contribution   :      2.64187       2.64661       2.63714
                        -----------------------------------------
Total Dipole Moment    :      0.58590       0.58441       0.58225
                        -----------------------------------------
Magnitude (a.u.)       :      1.01185
Magnitude (Debye)      :      2.57192

                             ****ORCA TERMINATED NORMALLY****
TOTAL RUN TIME: 0 days 0 hours 0 minutes 7 seconds 729 msec
