                         Program Version 4.0.0.2 - RELEASE -
|  1> ! WB97X-D3 6-31G(d) VerySlowConv
|  2> ! KDIIS NOSOSCF
|  3> %base "Scan_4"
|  4>
|  5> %scf
|  6> maxiter 999
|  7> end
|  8>
|  9> * xyz 0 1
| 10> O         -0.049758995972    1.598255281146    0.019282318613
| 11> H          0.841720186082    1.594049104865    0.015089960445
| 12> H         -0.352521190111    2.192235613989    0.611137720942
| 13> **                         ****END OF INPUT****

CARTESIAN COORDINATES (ANGSTROEM)
---------------------------------
  O     -0.049759    1.598255    0.019282
  H      0.841720    1.594049    0.015090
  H     -0.352521    2.192236    0.611138

 Total Charge           Charge          ....    0
 Multiplicity           Mult            ....    1
 Number of Electrons    NEL             ....   10
 Basis Dimension        Dim             ....   18

ORBITAL ENERGIES
----------------

  NO   OCC          E(Eh)            E(eV)
   0   2.0000     -19.218729      -522.9682
   1   2.0000      -1.140980       -31.0477
   2   2.0000      -0.660891       -17.9838
   3   2.0000      -0.465879       -12.6772
   4   2.0000      -0.396120       -10.7790
   5   0.0000       0.191993         5.2244
   6   0.0000       0.280919         7.6442
   7   0.0000       0.945296        25.7228
   8   0.0000       1.000553        27.2264
   9   0.0000       1.014746        27.6126

MULLIKEN ATOMIC CHARGES
-----------------------
   0 O :   -0.832170
   1 H :    0.415956
   2 H :    0.416213
Sum of atomic charges:    0.0000000

LOEWDIN ATOMIC CHARGES
----------------------
   0 O :   -0.613913
   1 H :    0.306859
   2 H :    0.307053

  Mayer bond orders larger than 0.1
B(  0-O ,  1-H ) :   0.7970 B(  0-O ,  2-H ) :   0.7968

Dispersion correction           -0.000000927
FINAL SINGLE POINT ENERGY       -76.374301657301

DIPOLE MOMENT
-------------
                                X             Y             Z
Electronic contribution:     -0.03867      -0.03880      -0.03866
Nuclear contribution   :      0.49002       0.49090       0.48915
                        -----------------------------------------
Total Dipole Moment    :      0.45135       0.45211       0.45049
                        -----------------------------------------
Magnitude (a.u.)       :      0.78171
Magnitude (Debye)      :      1.98694

                             ****ORCA TERMINATED NORMALLY****
TOTAL RUN TIME: 0 days 0 hours 0 minutes 11 seconds 801 msec
