                         Program Version 4.0.0.2 - RELEASE -
|  1> ! WB97X-D3 6-31G(d) VerySlowConv
|  2> ! KDIIS NOSOSCF
|  3> %base "Scan_40"
|  4>
|  5> %scf
|  6> maxiter 999
|  7> end
|  8>
|  9> * xyz 0 1
| 10> O         -0.957567180219    0.688816502994   -0.886901099056
| 11> H          3.516860833346    0.936168383568   -0.640440464458
| 12> H         -2.119853653127    3.759555113438    2.172851563514
| 13> **                         ****END OF INPUT****

CARTESIAN COORDINATES (ANGSTROEM)
---------------------------------
  O     -0.957567    0.688817   -0.886901
  H      3.516861    0.936168   -0.640440
  H     -2.119854    3.759555    2.172852

 Total Charge           Charge          ....    0
 Multiplicity           Mult            ....    1
 Number of Electrons    NEL             ....   10
 Basis Dimension        Dim             ....   18

ORBITAL ENERGIES
----------------

  NO   OCC          E(Eh)            E(eV)
   0   2.0000     -19.307478      -525.3832
   1   2.0000      -0.977754       -26.6060
   2   2.0000      -0.380482       -10.3534
   3   2.0000      -0.311574        -8.4783
   4   2.0000      -0.310174        -8.4403
   5   0.0000      -0.194714        -5.2984
   6   0.0000      -0.193925        -5.2770
   7   0.0000       0.822481        22.3809
   8   0.0000       0.822766        22.3886
   9   0.0000       1.004505        27.3340

MULLIKEN ATOMIC CHARGES
-----------------------
   0 O :   -0.192772
   1 H :    0.095881
   2 H :    0.096890
Sum of atomic charges:    0.0000000

LOEWDIN ATOMIC CHARGES
----------------------
   0 O :   -0.192747
   1 H :    0.095866
   2 H :    0.096881

  Mayer bond orders larger than 0.1
B(  0-O ,  1-H ) :   0.9908 B(  0-O ,  2-H ) :   0.9906

Dispersion correction           -0.000067223
FINAL SINGLE POINT ENERGY       -75.705362871306

DIPOLE MOMENT
-------------
                                X             Y             Z
Electronic contribution:     -2.16322      -2.15989      -2.15060
Nuclear contribution   :      2.75690       2.76185       2.75196
                        -----------------------------------------
Total Dipole Moment    :      0.59368       0.60196       0.60136
                        -----------------------------------------
Magnitude (a.u.)       :      1.03752
Magnitude (Debye)      :      2.63716

                             ****ORCA TERMINATED NORMALLY****
TOTAL RUN TIME: 0 days 0 hours 0 minutes 29 seconds 694 msec
