                         Program Version 4.0.0.2 - RELEASE -
|  1> ! WB97X-D3 6-31G(d) VerySlowConv
|  2> ! KDIIS NOSOSCF
|  3> %base "Scan_41"
|  4>
|  5> %scf
|  6> maxiter 999
|  7> end
|  8>
|  9> * xyz 0 1
| 10> O         -1.003265748309    0.643035854626   -0.932517874366
| 11> H          3.567213081561    0.945282685258   -0.631358844677
| 12> H         -2.124507333251    3.796221460116    2.209386719043
| 13> **                         ****END OF INPUT****

CARTESIAN COORDINATES (ANGSTROEM)
---------------------------------
  O     -1.003266    0.643036   -0.932518
  H      3.567213    0.945283   -0.631359
  H     -2.124507    3.796221    2.209387

 Total Charge           Charge          ....    0
 Multiplicity           Mult            ....    1
 Number of Electrons    NEL             ....   10
 Basis Dimension        Dim             ....   18

ORBITAL ENERGIES
----------------

  NO   OCC          E(Eh)            E(eV)
   0   2.0000     -18.489127      -503.1147
   1   2.0000      -0.243276        -6.6199
   2   2.0000       0.318282         8.6609
   3   2.0000       0.319045         8.6817
   4   2.0000       0.320898         8.7321
   5   0.0000      -0.336067        -9.1448
   6   0.0000      -0.335992        -9.1428
   7   0.0000       0.623622        16.9696
   8   0.0000       0.623643        16.9702
   9   0.0000       1.630195        44.3599

MULLIKEN ATOMIC CHARGES
-----------------------
   0 O :   -1.999670
   1 H :    0.999834
   2 H :    0.999835
Sum of atomic charges:   -0.0000000

LOEWDIN ATOMIC CHARGES
----------------------
   0 O :   -1.999683
   1 H :    0.999841
   2 H :    0.999842

Dispersion correction           -0.000058473
FINAL SINGLE POINT ENERGY       -74.933373289152

DIPOLE MOMENT
-------------
                                X             Y             Z
Electronic contribution:      3.61993       3.62651       3.61353
Nuclear contribution   :      2.87101       2.87617       2.86587
                        -----------------------------------------
Total Dipole Moment    :      6.49094       6.50268       6.47940
                        -----------------------------------------
Magnitude (a.u.)       :     11.24277
Magnitude (Debye)      :     28.57684

                             ****ORCA TERMINATED NORMALLY****
TOTAL RUN TIME: 0 days 0 hours 0 minutes 6 seconds 716 msec
