                         Program Version 4.0.0.2 - RELEASE -
|  1> ! WB97X-D3 6-31G(d) VerySlowConv
|  2> ! KDIIS NOSOSCF
|  3> %base "Scan_42"
|  4>
|  5> %scf
|  6> maxiter 999
|  7> end
|  8>
|  9> * xyz 0 1
| 10> O         -1.048627922221    0.597592204431   -0.977798857797
| 11> H          3.616916466304    0.954469249876   -0.622205219639
| 12> H         -2.128848544083    3.832478545694    2.245514077436
| 13> **                         ****END OF INPUT****

CARTESIAN COORDINATES (ANGSTROEM)
---------------------------------
  O     -1.048628    0.597592   -0.977799
  H      3.616916    0.954469   -0.622205
  H     -2.128849    3.832479    2.245514

 Total Charge           Charge          ....    0
 Multiplicity           Mult            ....    1
 Number of Electrons    NEL             ....   10
 Basis Dimension        Dim             ....   18

ORBITAL ENERGIES
----------------

  NO   OCC          E(Eh)            E(eV)
   0   2.0000     -18.484052      -502.9766
   1   2.0000      -0.238189        -6.4815
   2   2.0000       0.323495         8.8027
   3   2.0000       0.324090         8.8189
   4   2.0000       0.325876         8.8675
   5   0.0000      -0.340734        -9.2719
   6   0.0000      -0.340712        -9.2712
   7   0.0000       0.619385        16.8543
   8   0.0000       0.619414        16.8551
   9   0.0000       1.635355        44.5003

MULLIKEN ATOMIC CHARGES
-----------------------
   0 O :   -1.999794
   1 H :    0.999897
   2 H :    0.999898
Sum of atomic charges:    0.0000000

LOEWDIN ATOMIC CHARGES
----------------------
   0 O :   -1.999802
   1 H :    0.999900
   2 H :    0.999902

Dispersion correction           -0.000051021
FINAL SINGLE POINT ENERGY       -74.923985572760

DIPOLE MOMENT
-------------
                                X             Y             Z
Electronic contribution:      3.76493       3.77172       3.75822
Nuclear contribution   :      2.98428       2.98964       2.97894
                        -----------------------------------------
Total Dipole Moment    :      6.74922       6.76136       6.73716
                        -----------------------------------------
Magnitude (a.u.)       :     11.69005
Magnitude (Debye)      :     29.71374

                             ****ORCA TERMINATED NORMALLY****
TOTAL RUN TIME: 0 days 0 hours 0 minutes 7 seconds 583 msec
