                         Program Version 4.0.0.2 - RELEASE -
|  1> ! WB97X-D3 6-31G(d) VerySlowConv
|  2> ! KDIIS NOSOSCF
|  3> %base "Scan_43"
|  4>
|  5> %scf
|  6> maxiter 999
|  7> end
|  8>
|  9> * xyz 0 1
| 10> O         -1.093681472957    0.552457732511   -1.022771769665
| 11> H          3.666016339996    0.963726226139   -0.612981434064
| 12> H         -2.132894867039    3.868356041350    2.281263203729
| 13> **                         ****END OF INPUT****

CARTESIAN COORDINATES (ANGSTROEM)
---------------------------------
  O     -1.093681    0.552458   -1.022772
  H      3.666016    0.963726   -0.612981
  H     -2.132895    3.868356    2.281263

 Total Charge           Charge          ....    0
 Multiplicity           Mult            ....    1
 Number of Electrons    NEL             ....   10
 Basis Dimension        Dim             ....   18

ORBITAL ENERGIES
----------------

  NO   OCC          E(Eh)            E(eV)
   0   2.0000     -18.479146      -502.8431
   1   2.0000      -0.233312        -6.3487
   2   2.0000       0.328474         8.9382
   3   2.0000       0.328925         8.9505
   4   2.0000       0.330650         8.9974
   5   0.0000      -0.345441        -9.3999
   6   0.0000      -0.345363        -9.3978
   7   0.0000       0.615002        16.7351
   8   0.0000       0.615011        16.7353
   9   0.0000       1.640239        44.6332

MULLIKEN ATOMIC CHARGES
-----------------------
   0 O :   -1.999873
   1 H :    0.999937
   2 H :    0.999937
Sum of atomic charges:   -0.0000000

LOEWDIN ATOMIC CHARGES
----------------------
   0 O :   -1.999878
   1 H :    0.999939
   2 H :    0.999939

Dispersion correction           -0.000044656
FINAL SINGLE POINT ENERGY       -74.915012515361

DIPOLE MOMENT
-------------
                                X             Y             Z
Electronic contribution:      3.90882       3.91581       3.90180
Nuclear contribution   :      3.09678       3.10235       3.09124
                        -----------------------------------------
Total Dipole Moment    :      7.00560       7.01816       6.99304
                        -----------------------------------------
Magnitude (a.u.)       :     12.13407
Magnitude (Debye)      :     30.84234

                             ****ORCA TERMINATED NORMALLY****
TOTAL RUN TIME: 0 days 0 hours 0 minutes 7 seconds 68 msec
