                         Program Version 4.0.0.2 - RELEASE -
|  1> ! WB97X-D3 6-31G(d) VerySlowConv
|  2> ! KDIIS NOSOSCF
|  3> %base "Scan_44"
|  4>
|  5> %scf
|  6> maxiter 999
|  7> end
|  8>
|  9> * xyz 0 1
| 10> O         -1.138451398081    0.507607396425   -1.067461562771
| 11> H          3.714552544831    0.973052439179   -0.603688658673
| 12> H         -2.136661146750    3.903880164396    2.316660221444
| 13> **                         ****END OF INPUT****

CARTESIAN COORDINATES (ANGSTROEM)
---------------------------------
  O     -1.138451    0.507607   -1.067462
  H      3.714553    0.973052   -0.603689
  H     -2.136661    3.903880    2.316660

 Total Charge           Charge          ....    0
 Multiplicity           Mult            ....    1
 Number of Electrons    NEL             ....   10
 Basis Dimension        Dim             ....   18

ORBITAL ENERGIES
----------------

  NO   OCC          E(Eh)            E(eV)
   0   2.0000     -18.474548      -502.7180
   1   2.0000      -0.228682        -6.2227
   2   2.0000       0.333198         9.0668
   3   2.0000       0.333525         9.0757
   4   2.0000       0.335190         9.1210
   5   0.0000      -0.349953        -9.5227
   6   0.0000      -0.349911        -9.5216
   7   0.0000       0.610526        16.6132
   8   0.0000       0.610536        16.6135
   9   0.0000       1.644868        44.7591

MULLIKEN ATOMIC CHARGES
-----------------------
   0 O :   -1.999924
   1 H :    0.999962
   2 H :    0.999962
Sum of atomic charges:    0.0000000

LOEWDIN ATOMIC CHARGES
----------------------
   0 O :   -1.999926
   1 H :    0.999963
   2 H :    0.999963

Dispersion correction           -0.000039204
FINAL SINGLE POINT ENERGY       -74.906423145592

DIPOLE MOMENT
-------------
                                X             Y             Z
Electronic contribution:      4.05170       4.05892       4.04440
Nuclear contribution   :      3.20858       3.21434       3.20284
                        -----------------------------------------
Total Dipole Moment    :      7.26028       7.27327       7.24723
                        -----------------------------------------
Magnitude (a.u.)       :     12.57515
Magnitude (Debye)      :     31.96349

                             ****ORCA TERMINATED NORMALLY****
TOTAL RUN TIME: 0 days 0 hours 0 minutes 5 seconds 63 msec
