                         Program Version 4.0.0.2 - RELEASE -
|  1> ! WB97X-D3 6-31G(d) VerySlowConv
|  2> ! KDIIS NOSOSCF
|  3> %base "Scan_45"
|  4>
|  5> %scf
|  6> maxiter 999
|  7> end
|  8>
|  9> * xyz 0 1
| 10> O         -1.182960143609    0.463018709979   -1.111890642818
| 11> H          3.762560388692    0.982447068216   -0.594327711357
| 12> H         -2.140160245083    3.939074221805    2.351728354176
| 13> **                         ****END OF INPUT****

CARTESIAN COORDINATES (ANGSTROEM)
---------------------------------
  O     -1.182960    0.463019   -1.111891
  H      3.762560    0.982447   -0.594328
  H     -2.140160    3.939074    2.351728

 Total Charge           Charge          ....    0
 Multiplicity           Mult            ....    1
 Number of Electrons    NEL             ....   10
 Basis Dimension        Dim             ....   18

ORBITAL ENERGIES
----------------

  NO   OCC          E(Eh)            E(eV)
   0   2.0000     -18.469978      -502.5937
   1   2.0000      -0.224185        -6.1004
   2   2.0000       0.337772         9.1912
   3   2.0000       0.337995         9.1973
   4   2.0000       0.339595         9.2408
   5   0.0000      -0.354682        -9.6514
   6   0.0000      -0.354339        -9.6420
   7   0.0000       0.605951        16.4888
   8   0.0000       0.606038        16.4911
   9   0.0000       1.649395        44.8823

MULLIKEN ATOMIC CHARGES
-----------------------
   0 O :   -1.999957
   1 H :    0.999978
   2 H :    0.999979
Sum of atomic charges:    0.0000000

LOEWDIN ATOMIC CHARGES
----------------------
   0 O :   -1.999958
   1 H :    0.999979
   2 H :    0.999979

Dispersion correction           -0.000034519
FINAL SINGLE POINT ENERGY       -74.898194767919

DIPOLE MOMENT
-------------
                                X             Y             Z
Electronic contribution:      4.19369       4.20115       4.18612
Nuclear contribution   :      3.31972       3.32568       3.31378
                        -----------------------------------------
Total Dipole Moment    :      7.51341       7.52684       7.49990
                        -----------------------------------------
Magnitude (a.u.)       :     13.01357
Magnitude (Debye)      :     33.07788

                             ****ORCA TERMINATED NORMALLY****
TOTAL RUN TIME: 0 days 0 hours 0 minutes 5 seconds 272 msec
