                         Program Version 4.0.0.2 - RELEASE -
|  1> ! WB97X-D3 6-31G(d) VerySlowConv
|  2> ! KDIIS NOSOSCF
|  3> %base "Scan_5"
|  4>
|  5> %scf
|  6> maxiter 999
|  7> end
|  8>
|  9> * xyz 0 1
| 10> O         -0.064504072871    1.583483726052    0.004563638697
| 11> H          0.870091026635    1.590916991014    0.011969014544
| 12> H         -0.366146953765    2.210139282934    0.628977346760
| 13> **                         ****END OF INPUT****

CARTESIAN COORDINATES (ANGSTROEM)
---------------------------------
  O     -0.064504    1.583484    0.004564
  H      0.870091    1.590917    0.011969
  H     -0.366147    2.210139    0.628977

 Total Charge           Charge          ....    0
 Multiplicity           Mult            ....    1
 Number of Electrons    NEL             ....   10
 Basis Dimension        Dim             ....   18

ORBITAL ENERGIES
----------------

  NO   OCC          E(Eh)            E(eV)
   0   2.0000     -19.227510      -523.2071
   1   2.0000      -1.121824       -30.5264
   2   2.0000      -0.638008       -17.3611
   3   2.0000      -0.465647       -12.6709
   4   2.0000      -0.392384       -10.6773
   5   0.0000       0.178891         4.8679
   6   0.0000       0.266340         7.2475
   7   0.0000       0.913498        24.8575
   8   0.0000       0.992519        27.0078
   9   0.0000       1.000942        27.2370

MULLIKEN ATOMIC CHARGES
-----------------------
   0 O :   -0.831218
   1 H :    0.415455
   2 H :    0.415763
Sum of atomic charges:   -0.0000000

LOEWDIN ATOMIC CHARGES
----------------------
   0 O :   -0.623168
   1 H :    0.311475
   2 H :    0.311693

  Mayer bond orders larger than 0.1
B(  0-O ,  1-H ) :   0.7961 B(  0-O ,  2-H ) :   0.7958

Dispersion correction           -0.000001233
FINAL SINGLE POINT ENERGY       -76.384249313680

DIPOLE MOMENT
-------------
                                X             Y             Z
Electronic contribution:     -0.06034      -0.06045      -0.06023
Nuclear contribution   :      0.52684       0.52779       0.52590
                        -----------------------------------------
Total Dipole Moment    :      0.46651       0.46734       0.46567
                        -----------------------------------------
Magnitude (a.u.)       :      0.80801
Magnitude (Debye)      :      2.05380

                             ****ORCA TERMINATED NORMALLY****
TOTAL RUN TIME: 0 days 0 hours 0 minutes 12 seconds 201 msec
