                         Program Version 4.0.0.2 - RELEASE -
|  1> ! WB97X-D3 6-31G(d) VerySlowConv
|  2> ! KDIIS NOSOSCF
|  3> %base "Scan_6"
|  4>
|  5> %scf
|  6> maxiter 999
|  7> end
|  8>
|  9> * xyz 0 1
| 10> O         -0.081814428343    1.566142286095   -0.012715727111
| 11> H          0.905036278208    1.586419211053    0.007487280000
| 12> H         -0.383781849865    2.231978502851    0.650738447111
| 13> **                         ****END OF INPUT****

CARTESIAN COORDINATES (ANGSTROEM)
---------------------------------
  O     -0.081814    1.566142   -0.012716
  H      0.905036    1.586419    0.007487
  H     -0.383782    2.231979    0.650738

 Total Charge           Charge          ....    0
 Multiplicity           Mult            ....    1
 Number of Electrons    NEL             ....   10
 Basis Dimension        Dim             ....   18

ORBITAL ENERGIES
----------------

  NO   OCC          E(Eh)            E(eV)
   0   2.0000     -19.237920      -523.4904
   1   2.0000      -1.100564       -29.9479
   2   2.0000      -0.613165       -16.6851
   3   2.0000      -0.465112       -12.6563
   4   2.0000      -0.388584       -10.5739
   5   0.0000       0.162164         4.4127
   6   0.0000       0.246449         6.7062
   7   0.0000       0.881123        23.9766
   8   0.0000       0.945661        25.7328
   9   0.0000       1.001201        27.2441

MULLIKEN ATOMIC CHARGES
-----------------------
   0 O :   -0.818561
   1 H :    0.409134
   2 H :    0.409427
Sum of atomic charges:   -0.0000000

LOEWDIN ATOMIC CHARGES
----------------------
   0 O :   -0.627707
   1 H :    0.313754
   2 H :    0.313952

  Mayer bond orders larger than 0.1
B(  0-O ,  1-H ) :   0.8010 B(  0-O ,  2-H ) :   0.8007

Dispersion correction           -0.000001739
FINAL SINGLE POINT ENERGY       -76.384950897065

DIPOLE MOMENT
-------------
                                X             Y             Z
Electronic contribution:     -0.08932      -0.08948      -0.08916
Nuclear contribution   :      0.57007       0.57109       0.56905
                        -----------------------------------------
Total Dipole Moment    :      0.48075       0.48161       0.47989
                        -----------------------------------------
Magnitude (a.u.)       :      0.83268
Magnitude (Debye)      :      2.11651

                             ****ORCA TERMINATED NORMALLY****
TOTAL RUN TIME: 0 days 0 hours 0 minutes 3 seconds 339 msec
