                         Program Version 4.0.0.2 - RELEASE -
|  1> ! WB97X-D3 6-31G(d) VerySlowConv
|  2> ! KDIIS NOSOSCF
|  3> %base "Scan_7"
|  4>
|  5> %scf
|  6> maxiter 999
|  7> end
|  8>
|  9> * xyz 0 1
| 10> O         -0.102699931194    1.545219278921   -0.033563839820
| 11> H          0.947483011284    1.580850161350    0.001938098506
| 12> H         -0.405343080090    2.258470559729    0.677135741315
| 13> **                         ****END OF INPUT****

CARTESIAN COORDINATES (ANGSTROEM)
---------------------------------
  O     -0.102700    1.545219   -0.033564
  H      0.947483    1.580850    0.001938
  H     -0.405343    2.258471    0.677136

 Total Charge           Charge          ....    0
 Multiplicity           Mult            ....    1
 Number of Electrons    NEL             ....   10
 Basis Dimension        Dim             ....   18

ORBITAL ENERGIES
----------------

  NO   OCC          E(Eh)            E(eV)
   0   2.0000     -19.250134      -523.8228
   1   2.0000      -1.078107       -29.3368
   2   2.0000      -0.586421       -15.9573
   3   2.0000      -0.464538       -12.6407
   4   2.0000      -0.385120       -10.4797
   5   0.0000       0.140940         3.8352
   6   0.0000       0.219852         5.9825
   7   0.0000       0.850772        23.1507
   8   0.0000       0.896353        24.3910
   9   0.0000       1.001188        27.2437

MULLIKEN ATOMIC CHARGES
-----------------------
   0 O :   -0.789753
   1 H :    0.394767
   2 H :    0.394986
Sum of atomic charges:    0.0000000

LOEWDIN ATOMIC CHARGES
----------------------
   0 O :   -0.623977
   1 H :    0.311920
   2 H :    0.312057

  Mayer bond orders larger than 0.1
B(  0-O ,  1-H ) :   0.8141 B(  0-O ,  2-H ) :   0.8139

Dispersion correction           -0.000002604
FINAL SINGLE POINT ENERGY       -76.374167342717

DIPOLE MOMENT
-------------
                                X             Y             Z
Electronic contribution:     -0.12890      -0.12917      -0.12871
Nuclear contribution   :      0.62222       0.62334       0.62111
                        -----------------------------------------
Total Dipole Moment    :      0.49332       0.49417       0.49240
                        -----------------------------------------
Magnitude (a.u.)       :      0.85442
Magnitude (Debye)      :      2.17175

                             ****ORCA TERMINATED NORMALLY****
TOTAL RUN TIME: 0 days 0 hours 0 minutes 3 seconds 510 msec
