                         Program Version 4.0.0.2 - RELEASE -
|  1> ! WB97X-D3 6-31G(d) VerySlowConv
|  2> ! KDIIS NOSOSCF
|  3> %base "Scan_8"
|  4>
|  5> %scf
|  6> maxiter 999
|  7> end
|  8>
|  9> * xyz 0 1
| 10> O         -0.127191578270    1.520683651732   -0.058011641074
| 11> H          0.998274697420    1.573810642719   -0.005076301897
| 12> H         -0.431643119151    2.290045705549    0.708597942971
| 13> **                         ****END OF INPUT****

CARTESIAN COORDINATES (ANGSTROEM)
---------------------------------
  O     -0.127192    1.520684   -0.058012
  H      0.998275    1.573811   -0.005076
  H     -0.431643    2.290046    0.708598

 Total Charge           Charge          ....    0
 Multiplicity           Mult            ....    1
 Number of Electrons    NEL             ....   10
 Basis Dimension        Dim             ....   18

ORBITAL ENERGIES
----------------

  NO   OCC          E(Eh)            E(eV)
   0   2.0000     -19.263850      -524.1960
   1   2.0000      -1.056068       -28.7371
   2   2.0000      -0.558971       -15.2104
   3   2.0000      -0.463590       -12.6149
   4   2.0000      -0.382539       -10.4094
   5   0.0000       0.115012         3.1296
   6   0.0000       0.186259         5.0684
   7   0.0000       0.826909        22.5013
   8   0.0000       0.849695        23.1214
   9   0.0000       1.000782        27.2327

MULLIKEN ATOMIC CHARGES
-----------------------
   0 O :   -0.741911
   1 H :    0.370723
   2 H :    0.371188
Sum of atomic charges:   -0.0000000

LOEWDIN ATOMIC CHARGES
----------------------
   0 O :   -0.608122
   1 H :    0.303917
   2 H :    0.304206

  Mayer bond orders larger than 0.1
B(  0-O ,  1-H ) :   0.8359 B(  0-O ,  2-H ) :   0.8356

Dispersion correction           -0.000004202
FINAL SINGLE POINT ENERGY       -76.350806205440

DIPOLE MOMENT
-------------
                                X             Y             Z
Electronic contribution:     -0.18184      -0.18177      -0.18111
Nuclear contribution   :      0.68338       0.68461       0.68216
                        -----------------------------------------
Total Dipole Moment    :      0.50154       0.50284       0.50105
                        -----------------------------------------
Magnitude (a.u.)       :      0.86916
Magnitude (Debye)      :      2.20923

                             ****ORCA TERMINATED NORMALLY****
TOTAL RUN TIME: 0 days 0 hours 0 minutes 3 seconds 166 msec
