                         Program Version 4.0.0.2 - RELEASE -
|  1> ! WB97X-D3 6-31G(d) VerySlowConv
|  2> ! KDIIS NOSOSCF
|  3> %base "Scan_9"
|  4>
|  5> %scf
|  6> maxiter 999
|  7> end
|  8>
|  9> * xyz 0 1
| 10> O         -0.154904693879    1.492920771703   -0.085675143130
| 11> H          1.056572534455    1.565431780881   -0.013425263514
| 12> H         -0.462227840576    2.326187447416    0.744610406644
| 13> **                         ****END OF INPUT****

CARTESIAN COORDINATES (ANGSTROEM)
---------------------------------
  O     -0.154905    1.492921   -0.085675
  H      1.056573    1.565432   -0.013425
  H     -0.462228    2.326187    0.744610

 Total Charge           Charge          ....    0
 Multiplicity           Mult            ....    1
 Number of Electrons    NEL             ....   10
 Basis Dimension        Dim             ....   18

ORBITAL ENERGIES
----------------

  NO   OCC          E(Eh)            E(eV)
   0   2.0000     -19.278077      -524.5831
   1   2.0000      -1.036599       -28.2073
   2   2.0000      -0.532405       -14.4875
   3   2.0000      -0.461825       -12.5669
   4   2.0000      -0.381252       -10.3744
   5   0.0000       0.085542         2.3277
   6   0.0000       0.147506         4.0138
   7   0.0000       0.811930        22.0937
   8   0.0000       0.813571        22.1384
   9   0.0000       1.000019        27.2119

MULLIKEN ATOMIC CHARGES
-----------------------
   0 O :   -0.677665
   1 H :    0.338560
   2 H :    0.339105
Sum of atomic charges:   -0.0000000

LOEWDIN ATOMIC CHARGES
----------------------
   0 O :   -0.578911
   1 H :    0.289290
   2 H :    0.289621

  Mayer bond orders larger than 0.1
B(  0-O ,  1-H ) :   0.8637 B(  0-O ,  2-H ) :   0.8633

Dispersion correction           -0.000008004
FINAL SINGLE POINT ENERGY       -76.316355993205

DIPOLE MOMENT
-------------
                                X             Y             Z
Electronic contribution:     -0.24793      -0.24766      -0.24676
Nuclear contribution   :      0.75258       0.75393       0.75123
                        -----------------------------------------
Total Dipole Moment    :      0.50465       0.50628       0.50447
                        -----------------------------------------
Magnitude (a.u.)       :      0.87492
Magnitude (Debye)      :      2.22387

                             ****ORCA TERMINATED NORMALLY****
TOTAL RUN TIME: 0 days 0 hours 0 minutes 3 seconds 317 msec
