                         Program Version 4.0.0.2 - RELEASE -
|  1> ! WB97X-D3 6-31G(d) VerySlowConv
|  2> ! KDIIS NOSOSCF
|  3> %base "Scan_1"
|  4>
|  5> %scf
|  6> maxiter 999
|  7> end
|  8>
|  9> * xyz 0 1
| 10> C         -4.472708001515    1.925920001135    0.000001996116
| 11> H         -3.613615843515    1.925919234980   -0.000001587058
| 12> H         -4.759068585740    2.150963744681    0.778071541448
| 13> H         -4.759073559595    1.139571549046   -0.194137591196
| 14> H         -4.759074009635    2.487225470158   -0.583924359310
| 15> **                         ****END OF INPUT****

CARTESIAN COORDINATES (ANGSTROEM)
---------------------------------
  C     -4.472708    1.925920    0.000002
  H     -3.613616    1.925919   -0.000002
  H     -4.759069    2.150964    0.778072
  H     -4.759074    1.139572   -0.194138
  H     -4.759074    2.487225   -0.583924

 Total Charge           Charge          ....    0
 Multiplicity           Mult            ....    1
 Number of Electrons    NEL             ....   10
 Basis Dimension        Dim             ....   22

ORBITAL ENERGIES
----------------

  NO   OCC          E(Eh)            E(eV)
   0   2.0000     -10.154613      -276.3211
   1   2.0000      -0.883085       -24.0300
   2   2.0000      -0.530131       -14.4256
   3   2.0000      -0.529938       -14.4204
   4   2.0000      -0.529657       -14.4127
   5   0.0000       0.256337         6.9753
   6   0.0000       0.344524         9.3750
   7   0.0000       0.344912         9.3855
   8   0.0000       0.345494         9.4014
   9   0.0000       0.578875        15.7520

MULLIKEN ATOMIC CHARGES
-----------------------
   0 C :   -0.697155
   1 H :    0.176136
   2 H :    0.173337
   3 H :    0.173321
   4 H :    0.174361
Sum of atomic charges:    0.0000000

LOEWDIN ATOMIC CHARGES
----------------------
   0 C :   -0.620762
   1 H :    0.155611
   2 H :    0.155195
   3 H :    0.155093
   4 H :    0.154863

  Mayer bond orders larger than 0.1
B(  0-C ,  1-H ) :   0.9676 B(  0-C ,  2-H ) :   0.9685 B(  0-C ,  3-H ) :   0.9684
B(  0-C ,  4-H ) :   0.9681

Dispersion correction           -0.000003690
FINAL SINGLE POINT ENERGY       -40.279977731854

DIPOLE MOMENT
-------------
                                X             Y             Z
Electronic contribution:     -0.00036      -0.00108       0.00149
Nuclear contribution   :      0.00000      -0.00000       0.00000
                        -----------------------------------------
Total Dipole Moment    :     -0.00036      -0.00108       0.00149
                        -----------------------------------------
Magnitude (a.u.)       :      0.00187
Magnitude (Debye)      :      0.00477

                             ****ORCA TERMINATED NORMALLY****
TOTAL RUN TIME: 0 days 0 hours 0 minutes 4 seconds 571 msec
