                         Program Version 4.0.0.2 - RELEASE -
|  1> ! WB97X-D3 6-31G(d) VerySlowConv
|  2> ! KDIIS NOSOSCF
|  3> %base "Scan_10"
|  4>
|  5> %scf
|  6> maxiter 999
|  7> end
|  8>
|  9> * xyz 0 1
| 10> C         -4.472708331180    1.925919928690    0.000002085087
| 11> H         -3.138586023566    1.925918875832   -0.000003655702
| 12> H         -4.917409877298    2.275400540000    1.208300877952
| 13> H         -4.917417584459    0.704764455312   -0.301486107655
| 14> H         -4.917418183496    2.797596200166   -0.906803199683
| 15> **                         ****END OF INPUT****

CARTESIAN COORDINATES (ANGSTROEM)
---------------------------------
  C     -4.472708    1.925920    0.000002
  H     -3.138586    1.925919   -0.000004
  H     -4.917410    2.275401    1.208301
  H     -4.917418    0.704764   -0.301486
  H     -4.917418    2.797596   -0.906803

 Total Charge           Charge          ....    0
 Multiplicity           Mult            ....    1
 Number of Electrons    NEL             ....   10
 Basis Dimension        Dim             ....   22

ORBITAL ENERGIES
----------------

  NO   OCC          E(Eh)            E(eV)
   0   2.0000     -10.354857      -281.7700
   1   2.0000      -0.742671       -20.2091
   2   2.0000      -0.447144       -12.1674
   3   2.0000      -0.447056       -12.1650
   4   2.0000      -0.446826       -12.1588
   5   0.0000       0.129108         3.5132
   6   0.0000       0.191164         5.2018
   7   0.0000       0.191373         5.2075
   8   0.0000       0.191454         5.2097
   9   0.0000       0.699675        19.0391

MULLIKEN ATOMIC CHARGES
-----------------------
   0 C :   -0.540772
   1 H :    0.133984
   2 H :    0.135930
   3 H :    0.135914
   4 H :    0.134945
Sum of atomic charges:    0.0000000

LOEWDIN ATOMIC CHARGES
----------------------
   0 C :   -0.468252
   1 H :    0.116536
   2 H :    0.117342
   3 H :    0.117369
   4 H :    0.117005

  Mayer bond orders larger than 0.1
B(  0-C ,  1-H ) :   0.9484 B(  0-C ,  2-H ) :   0.9472 B(  0-C ,  3-H ) :   0.9472
B(  0-C ,  4-H ) :   0.9479

Dispersion correction           -0.000132896
FINAL SINGLE POINT ENERGY       -40.401251947101

DIPOLE MOMENT
-------------
                                X             Y             Z
Electronic contribution:     -0.00018       0.00036      -0.00071
Nuclear contribution   :      0.00000       0.00000      -0.00000
                        -----------------------------------------
Total Dipole Moment    :     -0.00018       0.00036      -0.00071
                        -----------------------------------------
Magnitude (a.u.)       :      0.00081
Magnitude (Debye)      :      0.00207

                             ****ORCA TERMINATED NORMALLY****
TOTAL RUN TIME: 0 days 0 hours 0 minutes 3 seconds 280 msec
