                         Program Version 4.0.0.2 - RELEASE -
|  1> ! WB97X-D3 6-31G(d) VerySlowConv
|  2> ! KDIIS NOSOSCF
|  3> %base "Scan_11"
|  4>
|  5> %scf
|  6> maxiter 999
|  7> end
|  8>
|  9> * xyz 0 1
| 10> C         -4.472693800305    1.925926395520    0.000001776446
| 11> H         -3.042181790988    1.925913763506   -0.000003817565
| 12> H         -4.949549821275    2.300644624819    1.295597769186
| 13> H         -4.949554257347    0.616544428365   -0.323265045498
| 14> H         -4.949560330086    2.860570787790   -0.972320682568
| 15> **                         ****END OF INPUT****

CARTESIAN COORDINATES (ANGSTROEM)
---------------------------------
  C     -4.472694    1.925926    0.000002
  H     -3.042182    1.925914   -0.000004
  H     -4.949550    2.300645    1.295598
  H     -4.949554    0.616544   -0.323265
  H     -4.949560    2.860571   -0.972321

 Total Charge           Charge          ....    0
 Multiplicity           Mult            ....    1
 Number of Electrons    NEL             ....   10
 Basis Dimension        Dim             ....   22

ORBITAL ENERGIES
----------------

  NO   OCC          E(Eh)            E(eV)
   0   2.0000     -10.386220      -282.6234
   1   2.0000      -0.724351       -19.7106
   2   2.0000      -0.434083       -11.8120
   3   2.0000      -0.434014       -11.8101
   4   2.0000      -0.433929       -11.8078
   5   0.0000       0.090115         2.4522
   6   0.0000       0.161082         4.3833
   7   0.0000       0.161300         4.3892
   8   0.0000       0.161320         4.3897
   9   0.0000       0.712521        19.3887

MULLIKEN ATOMIC CHARGES
-----------------------
   0 C :   -0.470758
   1 H :    0.116627
   2 H :    0.118352
   3 H :    0.118324
   4 H :    0.117455
Sum of atomic charges:    0.0000000

LOEWDIN ATOMIC CHARGES
----------------------
   0 C :   -0.434393
   1 H :    0.108056
   2 H :    0.108966
   3 H :    0.108944
   4 H :    0.108427

  Mayer bond orders larger than 0.1
B(  0-C ,  1-H ) :   0.9397 B(  0-C ,  2-H ) :   0.9389 B(  0-C ,  3-H ) :   0.9389
B(  0-C ,  4-H ) :   0.9393

Dispersion correction           -0.000305352
FINAL SINGLE POINT ENERGY       -40.332506533270

DIPOLE MOMENT
-------------
                                X             Y             Z
Electronic contribution:     -0.00043      -0.00019       0.00020
Nuclear contribution   :     -0.00005      -0.00002       0.00000
                        -----------------------------------------
Total Dipole Moment    :     -0.00048      -0.00021       0.00020
                        -----------------------------------------
Magnitude (a.u.)       :      0.00056
Magnitude (Debye)      :      0.00143

                             ****ORCA TERMINATED NORMALLY****
TOTAL RUN TIME: 0 days 0 hours 0 minutes 3 seconds 973 msec
