                         Program Version 4.0.0.2 - RELEASE -
|  1> ! WB97X-D3 6-31G(d) VerySlowConv
|  2> ! KDIIS NOSOSCF
|  3> %base "Scan_12"
|  4>
|  5> %scf
|  6> maxiter 999
|  7> end
|  8>
|  9> * xyz 0 1
| 10> C         -4.472624186446    1.925957750174    0.000000702882
| 11> H         -2.940993891562    1.925889829518   -0.000003423895
| 12> H         -4.983305614167    2.327107051231    1.387172543369
| 13> H         -4.983292413006    0.524022267406   -0.346100912238
| 14> H         -4.983323894820    2.926623101671   -1.041058910117
| 15> **                         ****END OF INPUT****

CARTESIAN COORDINATES (ANGSTROEM)
---------------------------------
  C     -4.472624    1.925958    0.000001
  H     -2.940994    1.925890   -0.000003
  H     -4.983306    2.327107    1.387173
  H     -4.983292    0.524022   -0.346101
  H     -4.983324    2.926623   -1.041059

 Total Charge           Charge          ....    0
 Multiplicity           Mult            ....    1
 Number of Electrons    NEL             ....   10
 Basis Dimension        Dim             ....   22

ORBITAL ENERGIES
----------------

  NO   OCC          E(Eh)            E(eV)
   0   2.0000     -10.414234      -283.3857
   1   2.0000      -0.708609       -19.2822
   2   2.0000      -0.421608       -11.4725
   3   2.0000      -0.421547       -11.4709
   4   2.0000      -0.421523       -11.4702
   5   0.0000       0.050115         1.3637
   6   0.0000       0.131202         3.5702
   7   0.0000       0.131364         3.5746
   8   0.0000       0.131388         3.5753
   9   0.0000       0.713610        19.4183

MULLIKEN ATOMIC CHARGES
-----------------------
   0 C :   -0.398236
   1 H :    0.099133
   2 H :    0.099843
   3 H :    0.099816
   4 H :    0.099443
Sum of atomic charges:   -0.0000000

LOEWDIN ATOMIC CHARGES
----------------------
   0 C :   -0.397209
   1 H :    0.099147
   2 H :    0.099459
   3 H :    0.099421
   4 H :    0.099182

  Mayer bond orders larger than 0.1
B(  0-C ,  1-H ) :   0.9271 B(  0-C ,  2-H ) :   0.9268 B(  0-C ,  3-H ) :   0.9268
B(  0-C ,  4-H ) :   0.9268

Dispersion correction           -0.000624889
FINAL SINGLE POINT ENERGY       -40.255860722805

DIPOLE MOMENT
-------------
                                X             Y             Z
Electronic contribution:      0.00044      -0.00012       0.00044
Nuclear contribution   :     -0.00029      -0.00013       0.00000
                        -----------------------------------------
Total Dipole Moment    :      0.00014      -0.00025       0.00044
                        -----------------------------------------
Magnitude (a.u.)       :      0.00053
Magnitude (Debye)      :      0.00135

                             ****ORCA TERMINATED NORMALLY****
TOTAL RUN TIME: 0 days 0 hours 0 minutes 3 seconds 828 msec
