                         Program Version 4.0.0.2 - RELEASE -
|  1> ! WB97X-D3 6-31G(d) VerySlowConv
|  2> ! KDIIS NOSOSCF
|  3> %base "Scan_13"
|  4>
|  5> %scf
|  6> maxiter 999
|  7> end
|  8>
|  9> * xyz 0 1
| 10> C         -4.472706011867    1.925923256304    0.000002151385
| 11> H         -2.833410017430    1.925915953646   -0.000004960228
| 12> H         -5.019135243094    2.355340114369    1.484693483135
| 13> H         -5.019142560951    0.425433919101   -0.370448784385
| 14> H         -5.019146166657    2.996986756580   -1.114231889907
| 15> **                         ****END OF INPUT****

CARTESIAN COORDINATES (ANGSTROEM)
---------------------------------
  C     -4.472706    1.925923    0.000002
  H     -2.833410    1.925916   -0.000005
  H     -5.019135    2.355340    1.484693
  H     -5.019143    0.425434   -0.370449
  H     -5.019146    2.996987   -1.114232

 Total Charge           Charge          ....    0
 Multiplicity           Mult            ....    1
 Number of Electrons    NEL             ....   10
 Basis Dimension        Dim             ....   22

ORBITAL ENERGIES
----------------

  NO   OCC          E(Eh)            E(eV)
   0   2.0000     -10.438763      -284.0532
   1   2.0000      -0.695450       -18.9242
   2   2.0000      -0.409506       -11.1432
   3   2.0000      -0.409494       -11.1429
   4   2.0000      -0.409433       -11.1412
   5   0.0000       0.010682         0.2907
   6   0.0000       0.101659         2.7663
   7   0.0000       0.101707         2.7676
   8   0.0000       0.101739         2.7685
   9   0.0000       0.708136        19.2693

MULLIKEN ATOMIC CHARGES
-----------------------
   0 C :   -0.324770
   1 H :    0.080934
   2 H :    0.081260
   3 H :    0.081288
   4 H :    0.081288
Sum of atomic charges:   -0.0000000

LOEWDIN ATOMIC CHARGES
----------------------
   0 C :   -0.356054
   1 H :    0.088823
   2 H :    0.089081
   3 H :    0.089091
   4 H :    0.089060

  Mayer bond orders larger than 0.1
B(  0-C ,  1-H ) :   0.9093 B(  0-C ,  2-H ) :   0.9095 B(  0-C ,  3-H ) :   0.9095
B(  0-C ,  4-H ) :   0.9093

Dispersion correction           -0.000843963
FINAL SINGLE POINT ENERGY       -40.174331049148

DIPOLE MOMENT
-------------
                                X             Y             Z
Electronic contribution:     -0.00070      -0.00025       0.00040
Nuclear contribution   :     -0.00001      -0.00001      -0.00000
                        -----------------------------------------
Total Dipole Moment    :     -0.00070      -0.00027       0.00040
                        -----------------------------------------
Magnitude (a.u.)       :      0.00085
Magnitude (Debye)      :      0.00217

                             ****ORCA TERMINATED NORMALLY****
TOTAL RUN TIME: 0 days 0 hours 0 minutes 3 seconds 90 msec
