                         Program Version 4.0.0.2 - RELEASE -
|  1> ! WB97X-D3 6-31G(d) VerySlowConv
|  2> ! KDIIS NOSOSCF
|  3> %base "Scan_14"
|  4>
|  5> %scf
|  6> maxiter 999
|  7> end
|  8>
|  9> * xyz 0 1
| 10> C         -4.472690255436    1.925949056400    0.000003331209
| 11> H         -2.720339430672    1.925896723501   -0.000006328397
| 12> H         -5.056834100425    2.384938259974    1.587092378435
| 13> H         -5.056826465435    0.321968484199   -0.395989210527
| 14> H         -5.056849748033    3.070847475927   -1.191090170720
| 15> **                         ****END OF INPUT****

CARTESIAN COORDINATES (ANGSTROEM)
---------------------------------
  C     -4.472690    1.925949    0.000003
  H     -2.720339    1.925897   -0.000006
  H     -5.056834    2.384938    1.587092
  H     -5.056826    0.321968   -0.395989
  H     -5.056850    3.070847   -1.191090

 Total Charge           Charge          ....    0
 Multiplicity           Mult            ....    1
 Number of Electrons    NEL             ....   10
 Basis Dimension        Dim             ....   22

ORBITAL ENERGIES
----------------

  NO   OCC          E(Eh)            E(eV)
   0   2.0000     -10.458421      -284.5881
   1   2.0000      -0.685154       -18.6440
   2   2.0000      -0.397832       -10.8256
   3   2.0000      -0.397751       -10.8234
   4   2.0000      -0.397652       -10.8207
   5   0.0000      -0.025707        -0.6995
   6   0.0000       0.073422         1.9979
   7   0.0000       0.073447         1.9986
   8   0.0000       0.073604         2.0029
   9   0.0000       0.701993        19.1022

MULLIKEN ATOMIC CHARGES
-----------------------
   0 C :   -0.256060
   1 H :    0.064001
   2 H :    0.064386
   3 H :    0.064179
   4 H :    0.063494
Sum of atomic charges:   -0.0000000

LOEWDIN ATOMIC CHARGES
----------------------
   0 C :   -0.313664
   1 H :    0.078324
   2 H :    0.078812
   3 H :    0.078612
   4 H :    0.077915

  Mayer bond orders larger than 0.1
B(  0-C ,  1-H ) :   0.8861 B(  0-C ,  2-H ) :   0.8865 B(  0-C ,  3-H ) :   0.8865
B(  0-C ,  4-H ) :   0.8863

Dispersion correction           -0.000895824
FINAL SINGLE POINT ENERGY       -40.092473191622

DIPOLE MOMENT
-------------
                                X             Y             Z
Electronic contribution:     -0.00082      -0.00138       0.00240
Nuclear contribution   :     -0.00006      -0.00010      -0.00000
                        -----------------------------------------
Total Dipole Moment    :     -0.00089      -0.00149       0.00239
                        -----------------------------------------
Magnitude (a.u.)       :      0.00295
Magnitude (Debye)      :      0.00751

                             ****ORCA TERMINATED NORMALLY****
TOTAL RUN TIME: 0 days 0 hours 0 minutes 3 seconds 98 msec
