                         Program Version 4.0.0.2 - RELEASE -
|  1> ! WB97X-D3 6-31G(d) VerySlowConv
|  2> ! KDIIS NOSOSCF
|  3> %base "Scan_16"
|  4>
|  5> %scf
|  6> maxiter 999
|  7> end
|  8>
|  9> * xyz 0 1
| 10> C         -4.472708050657    1.925919946069    0.000001994725
| 11> H         -2.492338001844    1.925917597349   -0.000006318185
| 12> H         -5.132823541215    2.444687658824    1.793599046962
| 13> H         -5.132834183026    0.113240045748   -0.447525874685
| 14> H         -5.132836223258    3.219834752010   -1.346058848817
| 15> **                         ****END OF INPUT****

CARTESIAN COORDINATES (ANGSTROEM)
---------------------------------
  C     -4.472708    1.925920    0.000002
  H     -2.492338    1.925918   -0.000006
  H     -5.132824    2.444688    1.793599
  H     -5.132834    0.113240   -0.447526
  H     -5.132836    3.219835   -1.346059

 Total Charge           Charge          ....    0
 Multiplicity           Mult            ....    1
 Number of Electrons    NEL             ....   10
 Basis Dimension        Dim             ....   22

ORBITAL ENERGIES
----------------

  NO   OCC          E(Eh)            E(eV)
   0   2.0000     -10.486875      -285.3624
   1   2.0000      -0.674614       -18.3572
   2   2.0000      -0.377631       -10.2758
   3   2.0000      -0.377611       -10.2753
   4   2.0000      -0.377588       -10.2747
   5   0.0000      -0.083284        -2.2663
   6   0.0000       0.024691         0.6719
   7   0.0000       0.024717         0.6726
   8   0.0000       0.024757         0.6737
   9   0.0000       0.692261        18.8374

MULLIKEN ATOMIC CHARGES
-----------------------
   0 C :   -0.141310
   1 H :    0.035561
   2 H :    0.035388
   3 H :    0.035316
   4 H :    0.035045
Sum of atomic charges:    0.0000000

LOEWDIN ATOMIC CHARGES
----------------------
   0 C :   -0.226697
   1 H :    0.056818
   2 H :    0.056741
   3 H :    0.056688
   4 H :    0.056451

  Mayer bond orders larger than 0.1
B(  0-C ,  1-H ) :   0.8294 B(  0-C ,  2-H ) :   0.8293 B(  0-C ,  3-H ) :   0.8294
B(  0-C ,  4-H ) :   0.8296

Dispersion correction           -0.000796110
FINAL SINGLE POINT ENERGY       -39.946418957377

DIPOLE MOMENT
-------------
                                X             Y             Z
Electronic contribution:      0.00042      -0.00035       0.00062
Nuclear contribution   :      0.00000       0.00000       0.00000
                        -----------------------------------------
Total Dipole Moment    :      0.00042      -0.00035       0.00062
                        -----------------------------------------
Magnitude (a.u.)       :      0.00083
Magnitude (Debye)      :      0.00210

                             ****ORCA TERMINATED NORMALLY****
TOTAL RUN TIME: 0 days 0 hours 0 minutes 3 seconds 14 msec
