                         Program Version 4.0.0.2 - RELEASE -
|  1> ! WB97X-D3 6-31G(d) VerySlowConv
|  2> ! KDIIS NOSOSCF
|  3> %base "Scan_18"
|  4>
|  5> %scf
|  6> maxiter 999
|  7> end
|  8>
|  9> * xyz 0 1
| 10> C         -4.472707927556    1.925920070039    0.000002007457
| 11> H         -2.272377760415    1.925917852116   -0.000007226572
| 12> H         -5.206142636971    2.502307957443    1.992814795752
| 13> H         -5.206155134459   -0.088096552775   -0.497233457081
| 14> H         -5.206156540598    3.363550673177   -1.495566119556
| 15> **                         ****END OF INPUT****

CARTESIAN COORDINATES (ANGSTROEM)
---------------------------------
  C     -4.472708    1.925920    0.000002
  H     -2.272378    1.925918   -0.000007
  H     -5.206143    2.502308    1.992815
  H     -5.206155   -0.088097   -0.497233
  H     -5.206157    3.363551   -1.495566

 Total Charge           Charge          ....    0
 Multiplicity           Mult            ....    1
 Number of Electrons    NEL             ....   10
 Basis Dimension        Dim             ....   22

ORBITAL ENERGIES
----------------

  NO   OCC          E(Eh)            E(eV)
   0   2.0000     -10.504828      -285.8509
   1   2.0000      -0.674397       -18.3513
   2   2.0000      -0.361930        -9.8486
   3   2.0000      -0.361741        -9.8435
   4   2.0000      -0.361719        -9.8429
   5   0.0000      -0.120850        -3.2885
   6   0.0000      -0.013522        -0.3679
   7   0.0000      -0.013205        -0.3593
   8   0.0000      -0.013083        -0.3560
   9   0.0000       0.680166        18.5083

MULLIKEN ATOMIC CHARGES
-----------------------
   0 C :   -0.061580
   1 H :    0.015555
   2 H :    0.015039
   3 H :    0.015172
   4 H :    0.015814
Sum of atomic charges:   -0.0000000

LOEWDIN ATOMIC CHARGES
----------------------
   0 C :   -0.147767
   1 H :    0.037126
   2 H :    0.036565
   3 H :    0.036703
   4 H :    0.037373

  Mayer bond orders larger than 0.1
B(  0-C ,  1-H ) :   0.7738 B(  0-C ,  2-H ) :   0.7727 B(  0-C ,  3-H ) :   0.7727
B(  0-C ,  4-H ) :   0.7734

Dispersion correction           -0.000630984
FINAL SINGLE POINT ENERGY       -39.831570984519

DIPOLE MOMENT
-------------
                                X             Y             Z
Electronic contribution:      0.00131       0.00173      -0.00240
Nuclear contribution   :     -0.00000      -0.00000      -0.00000
                        -----------------------------------------
Total Dipole Moment    :      0.00131       0.00172      -0.00240
                        -----------------------------------------
Magnitude (a.u.)       :      0.00324
Magnitude (Debye)      :      0.00822

                             ****ORCA TERMINATED NORMALLY****
TOTAL RUN TIME: 0 days 0 hours 0 minutes 3 seconds 222 msec
