                         Program Version 4.0.0.2 - RELEASE -
|  1> ! WB97X-D3 6-31G(d) VerySlowConv
|  2> ! KDIIS NOSOSCF
|  3> %base "Scan_19"
|  4>
|  5> %scf
|  6> maxiter 999
|  7> end
|  8>
|  9> * xyz 0 1
| 10> C         -4.472707829464    1.925920295380    0.000002015415
| 11> H         -2.163350779192    1.925917700312   -0.000007683831
| 12> H         -5.242484556391    2.530868119289    2.091559312131
| 13> H         -5.242497687072   -0.187891803741   -0.521871642520
| 14> H         -5.242499147880    3.434785688760   -1.569672001195
| 15> **                         ****END OF INPUT****

CARTESIAN COORDINATES (ANGSTROEM)
---------------------------------
  C     -4.472708    1.925920    0.000002
  H     -2.163351    1.925918   -0.000008
  H     -5.242485    2.530868    2.091559
  H     -5.242498   -0.187892   -0.521872
  H     -5.242499    3.434786   -1.569672

 Total Charge           Charge          ....    0
 Multiplicity           Mult            ....    1
 Number of Electrons    NEL             ....   10
 Basis Dimension        Dim             ....   22

ORBITAL ENERGIES
----------------

  NO   OCC          E(Eh)            E(eV)
   0   2.0000     -10.511865      -286.0424
   1   2.0000      -0.676657       -18.4128
   2   2.0000      -0.355271        -9.6674
   3   2.0000      -0.354986        -9.6597
   4   2.0000      -0.354923        -9.6580
   5   0.0000      -0.134265        -3.6535
   6   0.0000      -0.029714        -0.8086
   7   0.0000      -0.029203        -0.7947
   8   0.0000      -0.029086        -0.7915
   9   0.0000       0.670104        18.2345

MULLIKEN ATOMIC CHARGES
-----------------------
   0 C :   -0.031207
   1 H :    0.008297
   2 H :    0.007582
   3 H :    0.007458
   4 H :    0.007870
Sum of atomic charges:    0.0000000

LOEWDIN ATOMIC CHARGES
----------------------
   0 C :   -0.111857
   1 H :    0.028503
   2 H :    0.027703
   3 H :    0.027597
   4 H :    0.028055

  Mayer bond orders larger than 0.1
B(  0-C ,  1-H ) :   0.7502 B(  0-C ,  2-H ) :   0.7484 B(  0-C ,  3-H ) :   0.7483
B(  0-C ,  4-H ) :   0.7490

Dispersion correction           -0.000580014
FINAL SINGLE POINT ENERGY       -39.783167519602

DIPOLE MOMENT
-------------
                                X             Y             Z
Electronic contribution:      0.00349       0.00161      -0.00119
Nuclear contribution   :     -0.00000      -0.00000      -0.00000
                        -----------------------------------------
Total Dipole Moment    :      0.00349       0.00161      -0.00119
                        -----------------------------------------
Magnitude (a.u.)       :      0.00402
Magnitude (Debye)      :      0.01021

                             ****ORCA TERMINATED NORMALLY****
TOTAL RUN TIME: 0 days 0 hours 0 minutes 5 seconds 249 msec
