                         Program Version 4.0.0.2 - RELEASE -
|  1> ! WB97X-D3 6-31G(d) VerySlowConv
|  2> ! KDIIS NOSOSCF
|  3> %base "Scan_2"
|  4>
|  5> %scf
|  6> maxiter 999
|  7> end
|  8>
|  9> * xyz 0 1
| 10> C         -4.472707999195    1.925920000748    0.000001997644
| 11> H         -3.586307419404    1.925919213424   -0.000001709002
| 12> H         -4.768171290480    2.158117338417    0.802804481962
| 13> H         -4.768176417074    1.114575450152   -0.200308817695
| 14> H         -4.768176873847    2.505067997259   -0.602485952909
| 15> **                         ****END OF INPUT****

CARTESIAN COORDINATES (ANGSTROEM)
---------------------------------
  C     -4.472708    1.925920    0.000002
  H     -3.586307    1.925919   -0.000002
  H     -4.768171    2.158117    0.802804
  H     -4.768176    1.114575   -0.200309
  H     -4.768177    2.505068   -0.602486

 Total Charge           Charge          ....    0
 Multiplicity           Mult            ....    1
 Number of Electrons    NEL             ....   10
 Basis Dimension        Dim             ....   22

ORBITAL ENERGIES
----------------

  NO   OCC          E(Eh)            E(eV)
   0   2.0000     -10.164895      -276.6008
   1   2.0000      -0.873150       -23.7596
   2   2.0000      -0.524380       -14.2691
   3   2.0000      -0.524244       -14.2654
   4   2.0000      -0.523989       -14.2585
   5   0.0000       0.253027         6.8852
   6   0.0000       0.336055         9.1445
   7   0.0000       0.336417         9.1544
   8   0.0000       0.337027         9.1710
   9   0.0000       0.583615        15.8810

MULLIKEN ATOMIC CHARGES
-----------------------
   0 C :   -0.712236
   1 H :    0.179686
   2 H :    0.177235
   3 H :    0.177203
   4 H :    0.178112
Sum of atomic charges:   -0.0000000

LOEWDIN ATOMIC CHARGES
----------------------
   0 C :   -0.612431
   1 H :    0.153501
   2 H :    0.153099
   3 H :    0.153005
   4 H :    0.152826

  Mayer bond orders larger than 0.1
B(  0-C ,  1-H ) :   0.9677 B(  0-C ,  2-H ) :   0.9686 B(  0-C ,  3-H ) :   0.9685
B(  0-C ,  4-H ) :   0.9682

Dispersion correction           -0.000004741
FINAL SINGLE POINT ENERGY       -40.338459659951

DIPOLE MOMENT
-------------
                                X             Y             Z
Electronic contribution:     -0.00035      -0.00093       0.00130
Nuclear contribution   :     -0.00000      -0.00000       0.00000
                        -----------------------------------------
Total Dipole Moment    :     -0.00035      -0.00093       0.00130
                        -----------------------------------------
Magnitude (a.u.)       :      0.00164
Magnitude (Debye)      :      0.00416

                             ****ORCA TERMINATED NORMALLY****
TOTAL RUN TIME: 0 days 0 hours 0 minutes 3 seconds 892 msec
