                         Program Version 4.0.0.2 - RELEASE -
|  1> ! WB97X-D3 6-31G(d) VerySlowConv
|  2> ! KDIIS NOSOSCF
|  3> %base "Scan_20"
|  4>
|  5> %scf
|  6> maxiter 999
|  7> end
|  8>
|  9> * xyz 0 1
| 10> C         -4.472707568563    1.925920226612    0.000002109189
| 11> H         -2.054730950835    1.925917647704   -0.000008215650
| 12> H         -5.278690857113    2.559321632820    2.189934680519
| 13> H         -5.278704586396   -0.287313869441   -0.546417794148
| 14> H         -5.278706037094    3.505754362305   -1.643500779910
| 15> **                         ****END OF INPUT****

CARTESIAN COORDINATES (ANGSTROEM)
---------------------------------
  C     -4.472708    1.925920    0.000002
  H     -2.054731    1.925918   -0.000008
  H     -5.278691    2.559322    2.189935
  H     -5.278705   -0.287314   -0.546418
  H     -5.278706    3.505754   -1.643501

 Total Charge           Charge          ....    0
 Multiplicity           Mult            ....    1
 Number of Electrons    NEL             ....   10
 Basis Dimension        Dim             ....   22

ORBITAL ENERGIES
----------------

  NO   OCC          E(Eh)            E(eV)
   0   2.0000     -10.518175      -286.2141
   1   2.0000      -0.679985       -18.5033
   2   2.0000      -0.349261        -9.5039
   3   2.0000      -0.348893        -9.4939
   4   2.0000      -0.348805        -9.4915
   5   0.0000      -0.145171        -3.9503
   6   0.0000      -0.044369        -1.2074
   7   0.0000      -0.043751        -1.1905
   8   0.0000      -0.043613        -1.1868
   9   0.0000       0.657975        17.9044

MULLIKEN ATOMIC CHARGES
-----------------------
   0 C :   -0.003537
   1 H :    0.001254
   2 H :    0.000421
   3 H :    0.000520
   4 H :    0.001342
Sum of atomic charges:    0.0000000

LOEWDIN ATOMIC CHARGES
----------------------
   0 C :   -0.076779
   1 H :    0.019629
   2 H :    0.018707
   3 H :    0.018805
   4 H :    0.019639

  Mayer bond orders larger than 0.1
B(  0-C ,  1-H ) :   0.7298 B(  0-C ,  2-H ) :   0.7269 B(  0-C ,  3-H ) :   0.7270
B(  0-C ,  4-H ) :   0.7281

Dispersion correction           -0.000570595
FINAL SINGLE POINT ENERGY       -39.739773988664

DIPOLE MOMENT
-------------
                                X             Y             Z
Electronic contribution:      0.00304       0.00235      -0.00289
Nuclear contribution   :     -0.00000      -0.00000      -0.00000
                        -----------------------------------------
Total Dipole Moment    :      0.00304       0.00235      -0.00289
                        -----------------------------------------
Magnitude (a.u.)       :      0.00481
Magnitude (Debye)      :      0.01223

                             ****ORCA TERMINATED NORMALLY****
TOTAL RUN TIME: 0 days 0 hours 0 minutes 4 seconds 231 msec
