                         Program Version 4.0.0.2 - RELEASE -
|  1> ! WB97X-D3 6-31G(d) VerySlowConv
|  2> ! KDIIS NOSOSCF
|  3> %base "Scan_21"
|  4>
|  5> %scf
|  6> maxiter 999
|  7> end
|  8>
|  9> * xyz 0 1
| 10> C         -4.472708504114    1.925920495900    0.000001941562
| 11> H         -1.946737527560    1.925917332903   -0.000008535762
| 12> H         -5.314687876350    2.587611176087    2.287744251777
| 13> H         -5.314702153449   -0.386164040143   -0.570822478271
| 14> H         -5.314703938527    3.576315035253   -1.716905179306
| 15> **                         ****END OF INPUT****

CARTESIAN COORDINATES (ANGSTROEM)
---------------------------------
  C     -4.472709    1.925920    0.000002
  H     -1.946738    1.925917   -0.000009
  H     -5.314688    2.587611    2.287744
  H     -5.314702   -0.386164   -0.570822
  H     -5.314704    3.576315   -1.716905

 Total Charge           Charge          ....    0
 Multiplicity           Mult            ....    1
 Number of Electrons    NEL             ....   10
 Basis Dimension        Dim             ....   22

ORBITAL ENERGIES
----------------

  NO   OCC          E(Eh)            E(eV)
   0   2.0000     -10.523440      -286.3574
   1   2.0000      -0.683682       -18.6039
   2   2.0000      -0.343649        -9.3512
   3   2.0000      -0.343208        -9.3392
   4   2.0000      -0.343112        -9.3366
   5   0.0000      -0.153691        -4.1822
   6   0.0000      -0.057340        -1.5603
   7   0.0000      -0.056647        -1.5414
   8   0.0000      -0.056504        -1.5375
   9   0.0000       0.644903        17.5487

MULLIKEN ATOMIC CHARGES
-----------------------
   0 C :    0.018848
   1 H :   -0.004264
   2 H :   -0.005013
   3 H :   -0.005004
   4 H :   -0.004566
Sum of atomic charges:    0.0000000

LOEWDIN ATOMIC CHARGES
----------------------
   0 C :   -0.045940
   1 H :    0.011993
   2 H :    0.011155
   3 H :    0.011166
   4 H :    0.011625

  Mayer bond orders larger than 0.1
B(  0-C ,  1-H ) :   0.7135 B(  0-C ,  2-H ) :   0.7095 B(  0-C ,  3-H ) :   0.7096
B(  0-C ,  4-H ) :   0.7108

Dispersion correction           -0.000604162
FINAL SINGLE POINT ENERGY       -39.700821176269

DIPOLE MOMENT
-------------
                                X             Y             Z
Electronic contribution:      0.00360       0.00141      -0.00146
Nuclear contribution   :      0.00000      -0.00000       0.00000
                        -----------------------------------------
Total Dipole Moment    :      0.00360       0.00141      -0.00146
                        -----------------------------------------
Magnitude (a.u.)       :      0.00413
Magnitude (Debye)      :      0.01050

                             ****ORCA TERMINATED NORMALLY****
TOTAL RUN TIME: 0 days 0 hours 0 minutes 3 seconds 994 msec
