                         Program Version 4.0.0.2 - RELEASE -
|  1> ! WB97X-D3 6-31G(d) VerySlowConv
|  2> ! KDIIS NOSOSCF
|  3> %base "Scan_22"
|  4>
|  5> %scf
|  6> maxiter 999
|  7> end
|  8>
|  9> * xyz 0 1
| 10> C         -4.472707908492    1.925920474981    0.000002004317
| 11> H         -1.839582374619    1.925917240792   -0.000009028426
| 12> H         -5.350406054073    2.615680871564    2.384792773760
| 13> H         -5.350420915947   -0.484245134868   -0.595037518114
| 14> H         -5.350422746868    3.646326547531   -1.789738231538
| 15> **                         ****END OF INPUT****

CARTESIAN COORDINATES (ANGSTROEM)
---------------------------------
  C     -4.472708    1.925920    0.000002
  H     -1.839582    1.925917   -0.000009
  H     -5.350406    2.615681    2.384793
  H     -5.350421   -0.484245   -0.595038
  H     -5.350423    3.646327   -1.789738

 Total Charge           Charge          ....    0
 Multiplicity           Mult            ....    1
 Number of Electrons    NEL             ....   10
 Basis Dimension        Dim             ....   22

ORBITAL ENERGIES
----------------

  NO   OCC          E(Eh)            E(eV)
   0   2.0000     -10.528169      -286.4860
   1   2.0000      -0.687621       -18.7111
   2   2.0000      -0.338490        -9.2108
   3   2.0000      -0.338069        -9.1993
   4   2.0000      -0.337882        -9.1942
   5   0.0000      -0.160563        -4.3691
   6   0.0000      -0.068913        -1.8752
   7   0.0000      -0.068222        -1.8564
   8   0.0000      -0.067995        -1.8502
   9   0.0000       0.631728        17.1902

MULLIKEN ATOMIC CHARGES
-----------------------
   0 C :    0.038853
   1 H :   -0.009346
   2 H :   -0.010043
   3 H :   -0.010079
   4 H :   -0.009385
Sum of atomic charges:   -0.0000000

LOEWDIN ATOMIC CHARGES
----------------------
   0 C :   -0.017394
   1 H :    0.004776
   2 H :    0.003997
   3 H :    0.003964
   4 H :    0.004658

  Mayer bond orders larger than 0.1
B(  0-C ,  1-H ) :   0.7000 B(  0-C ,  2-H ) :   0.6953 B(  0-C ,  3-H ) :   0.6953
B(  0-C ,  4-H ) :   0.6970 B(  1-H ,  2-H ) :   0.1003 B(  1-H ,  3-H ) :   0.1002
B(  2-H ,  3-H ) :   0.1023 B(  2-H ,  4-H ) :   0.1017 B(  3-H ,  4-H ) :   0.1018

Dispersion correction           -0.000674164
FINAL SINGLE POINT ENERGY       -39.665783889382

DIPOLE MOMENT
-------------
                                X             Y             Z
Electronic contribution:      0.00321       0.00212      -0.00198
Nuclear contribution   :     -0.00000      -0.00000      -0.00000
                        -----------------------------------------
Total Dipole Moment    :      0.00321       0.00211      -0.00198
                        -----------------------------------------
Magnitude (a.u.)       :      0.00432
Magnitude (Debye)      :      0.01098

                             ****ORCA TERMINATED NORMALLY****
TOTAL RUN TIME: 0 days 0 hours 0 minutes 4 seconds 315 msec
