                         Program Version 4.0.0.2 - RELEASE -
|  1> ! WB97X-D3 6-31G(d) VerySlowConv
|  2> ! KDIIS NOSOSCF
|  3> %base "Scan_23"
|  4>
|  5> %scf
|  6> maxiter 999
|  7> end
|  8>
|  9> * xyz 0 1
| 10> C         -4.472708007741    1.925920510336    0.000001950498
| 11> H         -1.733352994992    1.925917144435   -0.000009431854
| 12> H         -5.385815359522    2.643508177647    2.481003518269
| 13> H         -5.385830875036   -0.581479594408   -0.619043436292
| 14> H         -5.385832762710    3.715733761990   -1.861942600620
| 15> **                         ****END OF INPUT****

CARTESIAN COORDINATES (ANGSTROEM)
---------------------------------
  C     -4.472708    1.925921    0.000002
  H     -1.733353    1.925917   -0.000009
  H     -5.385815    2.643508    2.481004
  H     -5.385831   -0.581480   -0.619043
  H     -5.385833    3.715734   -1.861943

 Total Charge           Charge          ....    0
 Multiplicity           Mult            ....    1
 Number of Electrons    NEL             ....   10
 Basis Dimension        Dim             ....   22

ORBITAL ENERGIES
----------------

  NO   OCC          E(Eh)            E(eV)
   0   2.0000     -10.532192      -286.5955
   1   2.0000      -0.691544       -18.8179
   2   2.0000      -0.333652        -9.0791
   3   2.0000      -0.333195        -9.0667
   4   2.0000      -0.333026        -9.0621
   5   0.0000      -0.166041        -4.5182
   6   0.0000      -0.079234        -2.1561
   7   0.0000      -0.078484        -2.1357
   8   0.0000      -0.078284        -2.1302
   9   0.0000       0.619710        16.8632

MULLIKEN ATOMIC CHARGES
-----------------------
   0 C :    0.056604
   1 H :   -0.013657
   2 H :   -0.014458
   3 H :   -0.014410
   4 H :   -0.014079
Sum of atomic charges:   -0.0000000

LOEWDIN ATOMIC CHARGES
----------------------
   0 C :    0.008496
   1 H :   -0.001583
   2 H :   -0.002447
   3 H :   -0.002401
   4 H :   -0.002064

  Mayer bond orders larger than 0.1
B(  0-C ,  1-H ) :   0.6892 B(  0-C ,  2-H ) :   0.6837 B(  0-C ,  3-H ) :   0.6838
B(  0-C ,  4-H ) :   0.6858 B(  1-H ,  2-H ) :   0.1040 B(  1-H ,  3-H ) :   0.1039
B(  1-H ,  4-H ) :   0.1026 B(  2-H ,  3-H ) :   0.1063 B(  2-H ,  4-H ) :   0.1056
B(  3-H ,  4-H ) :   0.1057

Dispersion correction           -0.000765778
FINAL SINGLE POINT ENERGY       -39.634136994788

DIPOLE MOMENT
-------------
                                X             Y             Z
Electronic contribution:      0.00381       0.00080      -0.00101
Nuclear contribution   :      0.00000      -0.00000       0.00000
                        -----------------------------------------
Total Dipole Moment    :      0.00381       0.00079      -0.00101
                        -----------------------------------------
Magnitude (a.u.)       :      0.00402
Magnitude (Debye)      :      0.01022

                             ****ORCA TERMINATED NORMALLY****
TOTAL RUN TIME: 0 days 0 hours 0 minutes 3 seconds 989 msec
