                         Program Version 4.0.0.2 - RELEASE -
|  1> ! WB97X-D3 6-31G(d) VerySlowConv
|  2> ! KDIIS NOSOSCF
|  3> %base "Scan_24"
|  4>
|  5> %scf
|  6> maxiter 999
|  7> end
|  8>
|  9> * xyz 0 1
| 10> C         -4.472707997014    1.925920480460    0.000001959415
| 11> H         -1.628012872651    1.925917090697   -0.000009876072
| 12> H         -5.420928305537    2.671102583659    2.576408805012
| 13> H         -5.420944466974   -0.677900036963   -0.642848441319
| 14> H         -5.420946357825    3.784559882147   -1.933542447035
| 15> **                         ****END OF INPUT****

CARTESIAN COORDINATES (ANGSTROEM)
---------------------------------
  C     -4.472708    1.925920    0.000002
  H     -1.628013    1.925917   -0.000010
  H     -5.420928    2.671103    2.576409
  H     -5.420944   -0.677900   -0.642848
  H     -5.420946    3.784560   -1.933542

 Total Charge           Charge          ....    0
 Multiplicity           Mult            ....    1
 Number of Electrons    NEL             ....   10
 Basis Dimension        Dim             ....   22

ORBITAL ENERGIES
----------------

  NO   OCC          E(Eh)            E(eV)
   0   2.0000     -10.535281      -286.6796
   1   2.0000      -0.695132       -18.9155
   2   2.0000      -0.328972        -8.9518
   3   2.0000      -0.328520        -8.9395
   4   2.0000      -0.328355        -8.9350
   5   0.0000      -0.170330        -4.6349
   6   0.0000      -0.088270        -2.4020
   7   0.0000      -0.087553        -2.3824
   8   0.0000      -0.087367        -2.3774
   9   0.0000       0.609253        16.5786

MULLIKEN ATOMIC CHARGES
-----------------------
   0 C :    0.071224
   1 H :   -0.017553
   2 H :   -0.017746
   3 H :   -0.017762
   4 H :   -0.018164
Sum of atomic charges:    0.0000000

LOEWDIN ATOMIC CHARGES
----------------------
   0 C :    0.030622
   1 H :   -0.007359
   2 H :   -0.007621
   3 H :   -0.007636
   4 H :   -0.008007

  Mayer bond orders larger than 0.1
B(  0-C ,  1-H ) :   0.6811 B(  0-C ,  2-H ) :   0.6742 B(  0-C ,  3-H ) :   0.6745
B(  0-C ,  4-H ) :   0.6773 B(  1-H ,  2-H ) :   0.1070 B(  1-H ,  3-H ) :   0.1066
B(  1-H ,  4-H ) :   0.1050 B(  2-H ,  3-H ) :   0.1099 B(  2-H ,  4-H ) :   0.1086
B(  3-H ,  4-H ) :   0.1087

Dispersion correction           -0.000856186
FINAL SINGLE POINT ENERGY       -39.605370902974

DIPOLE MOMENT
-------------
                                X             Y             Z
Electronic contribution:      0.00229      -0.00142       0.00166
Nuclear contribution   :     -0.00000      -0.00000       0.00000
                        -----------------------------------------
Total Dipole Moment    :      0.00229      -0.00142       0.00166
                        -----------------------------------------
Magnitude (a.u.)       :      0.00317
Magnitude (Debye)      :      0.00805

                             ****ORCA TERMINATED NORMALLY****
TOTAL RUN TIME: 0 days 0 hours 0 minutes 4 seconds 360 msec
