                         Program Version 4.0.0.2 - RELEASE -
|  1> ! WB97X-D3 6-31G(d) VerySlowConv
|  2> ! KDIIS NOSOSCF
|  3> %base "Scan_25"
|  4>
|  5> %scf
|  6> maxiter 999
|  7> end
|  8>
|  9> * xyz 0 1
| 10> C         -4.472707995063    1.925920486751    0.000001959135
| 11> H         -1.523449368141    1.925917006845   -0.000010314716
| 12> H         -5.455782384822    2.698493533292    2.671110733644
| 13> H         -5.455799162098   -0.773609609582   -0.666477933950
| 14> H         -5.455801089876    3.852878582694   -2.004614444114
| 15> **                         ****END OF INPUT****

CARTESIAN COORDINATES (ANGSTROEM)
---------------------------------
  C     -4.472708    1.925920    0.000002
  H     -1.523449    1.925917   -0.000010
  H     -5.455782    2.698494    2.671111
  H     -5.455799   -0.773610   -0.666478
  H     -5.455801    3.852879   -2.004614

 Total Charge           Charge          ....    0
 Multiplicity           Mult            ....    1
 Number of Electrons    NEL             ....   10
 Basis Dimension        Dim             ....   22

ORBITAL ENERGIES
----------------

  NO   OCC          E(Eh)            E(eV)
   0   2.0000     -10.537670      -286.7446
   1   2.0000      -0.698492       -19.0069
   2   2.0000      -0.324533        -8.8310
   3   2.0000      -0.324014        -8.8169
   4   2.0000      -0.323855        -8.8126
   5   0.0000      -0.173788        -4.7290
   6   0.0000      -0.096458        -2.6248
   7   0.0000      -0.095614        -2.6018
   8   0.0000      -0.095429        -2.5968
   9   0.0000       0.600731        16.3467

MULLIKEN ATOMIC CHARGES
-----------------------
   0 C :    0.084965
   1 H :   -0.020562
   2 H :   -0.021294
   3 H :   -0.021351
   4 H :   -0.021758
Sum of atomic charges:   -0.0000000

LOEWDIN ATOMIC CHARGES
----------------------
   0 C :    0.050995
   1 H :   -0.012044
   2 H :   -0.012820
   3 H :   -0.012874
   4 H :   -0.013257

  Mayer bond orders larger than 0.1
B(  0-C ,  1-H ) :   0.6748 B(  0-C ,  2-H ) :   0.6668 B(  0-C ,  3-H ) :   0.6668
B(  0-C ,  4-H ) :   0.6695 B(  1-H ,  2-H ) :   0.1089 B(  1-H ,  3-H ) :   0.1087
B(  1-H ,  4-H ) :   0.1072 B(  2-H ,  3-H ) :   0.1125 B(  2-H ,  4-H ) :   0.1114
B(  3-H ,  4-H ) :   0.1115

Dispersion correction           -0.000921022
FINAL SINGLE POINT ENERGY       -39.579114453867

DIPOLE MOMENT
-------------
                                X             Y             Z
Electronic contribution:      0.00499      -0.00157       0.00208
Nuclear contribution   :     -0.00000      -0.00000       0.00000
                        -----------------------------------------
Total Dipole Moment    :      0.00499      -0.00157       0.00208
                        -----------------------------------------
Magnitude (a.u.)       :      0.00563
Magnitude (Debye)      :      0.01430

                             ****ORCA TERMINATED NORMALLY****
TOTAL RUN TIME: 0 days 0 hours 0 minutes 5 seconds 282 msec
