                         Program Version 4.0.0.2 - RELEASE -
|  1> ! WB97X-D3 6-31G(d) VerySlowConv
|  2> ! KDIIS NOSOSCF
|  3> %base "Scan_26"
|  4>
|  5> %scf
|  6> maxiter 999
|  7> end
|  8>
|  9> * xyz 0 1
| 10> C         -4.472707994882    1.925920511386    0.000001953259
| 11> H         -1.419518347041    1.925916904123   -0.000010746377
| 12> H         -5.490425639491    2.725718788245    2.765239835914
| 13> H         -5.490443014794   -0.868740246303   -0.689964487039
| 14> H         -5.490445003792    3.920784042549   -2.075256555757
| 15> **                         ****END OF INPUT****

CARTESIAN COORDINATES (ANGSTROEM)
---------------------------------
  C     -4.472708    1.925921    0.000002
  H     -1.419518    1.925917   -0.000011
  H     -5.490426    2.725719    2.765240
  H     -5.490443   -0.868740   -0.689964
  H     -5.490445    3.920784   -2.075257

 Total Charge           Charge          ....    0
 Multiplicity           Mult            ....    1
 Number of Electrons    NEL             ....   10
 Basis Dimension        Dim             ....   22

ORBITAL ENERGIES
----------------

  NO   OCC          E(Eh)            E(eV)
   0   2.0000     -10.539520      -286.7949
   1   2.0000      -0.701558       -19.0904
   2   2.0000      -0.320342        -8.7170
   3   2.0000      -0.319704        -8.6996
   4   2.0000      -0.319540        -8.6951
   5   0.0000      -0.176585        -4.8051
   6   0.0000      -0.103730        -2.8226
   7   0.0000      -0.102775        -2.7967
   8   0.0000      -0.102581        -2.7914
   9   0.0000       0.594061        16.1652

MULLIKEN ATOMIC CHARGES
-----------------------
   0 C :    0.097719
   1 H :   -0.023438
   2 H :   -0.024626
   3 H :   -0.024703
   4 H :   -0.024952
Sum of atomic charges:    0.0000000

LOEWDIN ATOMIC CHARGES
----------------------
   0 C :    0.069505
   1 H :   -0.016375
   2 H :   -0.017582
   3 H :   -0.017658
   4 H :   -0.017890

  Mayer bond orders larger than 0.1
B(  0-C ,  1-H ) :   0.6705 B(  0-C ,  2-H ) :   0.6602 B(  0-C ,  3-H ) :   0.6601
B(  0-C ,  4-H ) :   0.6629 B(  1-H ,  2-H ) :   0.1103 B(  1-H ,  3-H ) :   0.1101
B(  1-H ,  4-H ) :   0.1086 B(  2-H ,  3-H ) :   0.1151 B(  2-H ,  4-H ) :   0.1139
B(  3-H ,  4-H ) :   0.1141

Dispersion correction           -0.000946282
FINAL SINGLE POINT ENERGY       -39.555029146748

DIPOLE MOMENT
-------------
                                X             Y             Z
Electronic contribution:      0.00712      -0.00111       0.00178
Nuclear contribution   :     -0.00000      -0.00000       0.00000
                        -----------------------------------------
Total Dipole Moment    :      0.00712      -0.00112       0.00178
                        -----------------------------------------
Magnitude (a.u.)       :      0.00742
Magnitude (Debye)      :      0.01887

                             ****ORCA TERMINATED NORMALLY****
TOTAL RUN TIME: 0 days 0 hours 0 minutes 6 seconds 391 msec
