                         Program Version 4.0.0.2 - RELEASE -
|  1> ! WB97X-D3 6-31G(d) VerySlowConv
|  2> ! KDIIS NOSOSCF
|  3> %base "Scan_27"
|  4>
|  5> %scf
|  6> maxiter 999
|  7> end
|  8>
|  9> * xyz 0 1
| 10> C         -4.472707991198    1.925920541856    0.000001957996
| 11> H         -1.316076180366    1.925916792948   -0.000011182875
| 12> H         -5.524905951597    2.752815983974    2.858926191819
| 13> H         -5.524923908570   -0.963423411128   -0.713340570775
| 14> H         -5.524925968269    3.988370092350   -2.145566396165
| 15> **                         ****END OF INPUT****

CARTESIAN COORDINATES (ANGSTROEM)
---------------------------------
  C     -4.472708    1.925921    0.000002
  H     -1.316076    1.925917   -0.000011
  H     -5.524906    2.752816    2.858926
  H     -5.524924   -0.963423   -0.713341
  H     -5.524926    3.988370   -2.145566

 Total Charge           Charge          ....    0
 Multiplicity           Mult            ....    1
 Number of Electrons    NEL             ....   10
 Basis Dimension        Dim             ....   22

ORBITAL ENERGIES
----------------

  NO   OCC          E(Eh)            E(eV)
   0   2.0000     -10.540916      -286.8329
   1   2.0000      -0.704410       -19.1680
   2   2.0000      -0.316194        -8.6041
   3   2.0000      -0.315648        -8.5892
   4   2.0000      -0.315469        -8.5844
   5   0.0000      -0.178869        -4.8673
   6   0.0000      -0.110123        -2.9966
   7   0.0000      -0.109280        -2.9737
   8   0.0000      -0.109042        -2.9672
   9   0.0000       0.588946        16.0260

MULLIKEN ATOMIC CHARGES
-----------------------
   0 C :    0.110355
   1 H :   -0.027125
   2 H :   -0.027637
   3 H :   -0.027657
   4 H :   -0.027936
Sum of atomic charges:    0.0000000

LOEWDIN ATOMIC CHARGES
----------------------
   0 C :    0.087046
   1 H :   -0.021274
   2 H :   -0.021822
   3 H :   -0.021844
   4 H :   -0.022105

  Mayer bond orders larger than 0.1
B(  0-C ,  1-H ) :   0.6655 B(  0-C ,  2-H ) :   0.6552 B(  0-C ,  3-H ) :   0.6537
B(  0-C ,  4-H ) :   0.6584 B(  1-H ,  2-H ) :   0.1119 B(  1-H ,  3-H ) :   0.1123
B(  1-H ,  4-H ) :   0.1097 B(  2-H ,  3-H ) :   0.1172 B(  2-H ,  4-H ) :   0.1150
B(  3-H ,  4-H ) :   0.1161

Dispersion correction           -0.000934752
FINAL SINGLE POINT ENERGY       -39.532898108707

DIPOLE MOMENT
-------------
                                X             Y             Z
Electronic contribution:      0.00374      -0.00135       0.00172
Nuclear contribution   :     -0.00000      -0.00000       0.00000
                        -----------------------------------------
Total Dipole Moment    :      0.00374      -0.00135       0.00172
                        -----------------------------------------
Magnitude (a.u.)       :      0.00433
Magnitude (Debye)      :      0.01101

                             ****ORCA TERMINATED NORMALLY****
TOTAL RUN TIME: 0 days 0 hours 0 minutes 5 seconds 726 msec
