                         Program Version 4.0.0.2 - RELEASE -
|  1> ! WB97X-D3 6-31G(d) VerySlowConv
|  2> ! KDIIS NOSOSCF
|  3> %base "Scan_28"
|  4>
|  5> %scf
|  6> maxiter 999
|  7> end
|  8>
|  9> * xyz 0 1
| 10> C         -4.472707993511    1.925920590335    0.000001894998
| 11> H         -1.212996891370    1.925916665077   -0.000011548369
| 12> H         -5.559265259624    2.779818088044    2.952283869246
| 13> H         -5.559283840903   -1.057774442879   -0.736634606176
| 14> H         -5.559286014592    4.055719099422   -2.215629609700
| 15> **                         ****END OF INPUT****

CARTESIAN COORDINATES (ANGSTROEM)
---------------------------------
  C     -4.472708    1.925921    0.000002
  H     -1.212997    1.925917   -0.000012
  H     -5.559265    2.779818    2.952284
  H     -5.559284   -1.057774   -0.736635
  H     -5.559286    4.055719   -2.215630

 Total Charge           Charge          ....    0
 Multiplicity           Mult            ....    1
 Number of Electrons    NEL             ....   10
 Basis Dimension        Dim             ....   22

ORBITAL ENERGIES
----------------

  NO   OCC          E(Eh)            E(eV)
   0   2.0000     -10.541674      -286.8535
   1   2.0000      -0.706773       -19.2323
   2   2.0000      -0.312354        -8.4996
   3   2.0000      -0.311480        -8.4758
   4   2.0000      -0.311397        -8.4736
   5   0.0000      -0.180602        -4.9144
   6   0.0000      -0.115966        -3.1556
   7   0.0000      -0.114750        -3.1225
   8   0.0000      -0.114644        -3.1196
   9   0.0000       0.585138        15.9224

MULLIKEN ATOMIC CHARGES
-----------------------
   0 C :    0.120862
   1 H :   -0.029034
   2 H :   -0.030448
   3 H :   -0.030501
   4 H :   -0.030879
Sum of atomic charges:    0.0000000

LOEWDIN ATOMIC CHARGES
----------------------
   0 C :    0.101744
   1 H :   -0.024246
   2 H :   -0.025678
   3 H :   -0.025730
   4 H :   -0.026091

  Mayer bond orders larger than 0.1
B(  0-C ,  1-H ) :   0.6647 B(  0-C ,  2-H ) :   0.6493 B(  0-C ,  3-H ) :   0.6493
B(  0-C ,  4-H ) :   0.6528 B(  1-H ,  2-H ) :   0.1126 B(  1-H ,  3-H ) :   0.1124
B(  1-H ,  4-H ) :   0.1095 B(  2-H ,  3-H ) :   0.1190 B(  2-H ,  4-H ) :   0.1183
B(  3-H ,  4-H ) :   0.1185

Dispersion correction           -0.000899644
FINAL SINGLE POINT ENERGY       -39.512563429414

DIPOLE MOMENT
-------------
                                X             Y             Z
Electronic contribution:      0.00912      -0.00167       0.00227
Nuclear contribution   :     -0.00000      -0.00000       0.00000
                        -----------------------------------------
Total Dipole Moment    :      0.00912      -0.00167       0.00227
                        -----------------------------------------
Magnitude (a.u.)       :      0.00955
Magnitude (Debye)      :      0.02427

                             ****ORCA TERMINATED NORMALLY****
TOTAL RUN TIME: 0 days 0 hours 0 minutes 8 seconds 311 msec
