                         Program Version 4.0.0.2 - RELEASE -
|  1> ! WB97X-D3 6-31G(d) VerySlowConv
|  2> ! KDIIS NOSOSCF
|  3> %base "Scan_29"
|  4>
|  5> %scf
|  6> maxiter 999
|  7> end
|  8>
|  9> * xyz 0 1
| 10> C         -4.472707990723    1.925920637189    0.000001862676
| 11> H         -1.110178367349    1.925916537141   -0.000011941564
| 12> H         -5.593537668058    2.806751893877    3.045405383842
| 13> H         -5.593556847402   -1.151886774397   -0.759869730631
| 14> H         -5.593559126468    4.122897706190   -2.285515574323
| 15> **                         ****END OF INPUT****

CARTESIAN COORDINATES (ANGSTROEM)
---------------------------------
  C     -4.472708    1.925921    0.000002
  H     -1.110178    1.925917   -0.000012
  H     -5.593538    2.806752    3.045405
  H     -5.593557   -1.151887   -0.759870
  H     -5.593559    4.122898   -2.285516

 Total Charge           Charge          ....    0
 Multiplicity           Mult            ....    1
 Number of Electrons    NEL             ....   10
 Basis Dimension        Dim             ....   22

ORBITAL ENERGIES
----------------

  NO   OCC          E(Eh)            E(eV)
   0   2.0000     -10.542015      -286.8628
   1   2.0000      -0.708913       -19.2905
   2   2.0000      -0.308472        -8.3939
   3   2.0000      -0.307639        -8.3713
   4   2.0000      -0.307503        -8.3676
   5   0.0000      -0.182019        -4.9530
   6   0.0000      -0.121006        -3.2928
   7   0.0000      -0.119872        -3.2619
   8   0.0000      -0.119695        -3.2571
   9   0.0000       0.582898        15.8614

MULLIKEN ATOMIC CHARGES
-----------------------
   0 C :    0.131328
   1 H :   -0.032112
   2 H :   -0.032955
   3 H :   -0.032982
   4 H :   -0.033278
Sum of atomic charges:    0.0000000

LOEWDIN ATOMIC CHARGES
----------------------
   0 C :    0.115702
   1 H :   -0.028188
   2 H :   -0.029060
   3 H :   -0.029087
   4 H :   -0.029367

  Mayer bond orders larger than 0.1
B(  0-C ,  1-H ) :   0.6617 B(  0-C ,  2-H ) :   0.6448 B(  0-C ,  3-H ) :   0.6448
B(  0-C ,  4-H ) :   0.6500 B(  1-H ,  2-H ) :   0.1140 B(  1-H ,  3-H ) :   0.1134
B(  1-H ,  4-H ) :   0.1100 B(  2-H ,  3-H ) :   0.1210 B(  2-H ,  4-H ) :   0.1192
B(  3-H ,  4-H ) :   0.1198

Dispersion correction           -0.000853382
FINAL SINGLE POINT ENERGY       -39.493874008150

DIPOLE MOMENT
-------------
                                X             Y             Z
Electronic contribution:      0.00602      -0.00142       0.00180
Nuclear contribution   :     -0.00000      -0.00000       0.00000
                        -----------------------------------------
Total Dipole Moment    :      0.00602      -0.00142       0.00180
                        -----------------------------------------
Magnitude (a.u.)       :      0.00644
Magnitude (Debye)      :      0.01636

                             ****ORCA TERMINATED NORMALLY****
TOTAL RUN TIME: 0 days 0 hours 0 minutes 11 seconds 234 msec
