                         Program Version 4.0.0.2 - RELEASE -
|  1> ! WB97X-D3 6-31G(d) VerySlowConv
|  2> ! KDIIS NOSOSCF
|  3> %base "Scan_3"
|  4>
|  5> %scf
|  6> maxiter 999
|  7> end
|  8>
|  9> * xyz 0 1
| 10> C         -4.472707999431    1.925920000368    0.000001998705
| 11> H         -3.555302881223    1.925919186662   -0.000001840207
| 12> H         -4.778506012495    2.166239141983    0.830884924760
| 13> H         -4.778511317829    1.086196223230   -0.207315294003
| 14> H         -4.778511789022    2.525325447756   -0.623559789255
| 15> **                         ****END OF INPUT****

CARTESIAN COORDINATES (ANGSTROEM)
---------------------------------
  C     -4.472708    1.925920    0.000002
  H     -3.555303    1.925919   -0.000002
  H     -4.778506    2.166239    0.830885
  H     -4.778511    1.086196   -0.207315
  H     -4.778512    2.525325   -0.623560

 Total Charge           Charge          ....    0
 Multiplicity           Mult            ....    1
 Number of Electrons    NEL             ....   10
 Basis Dimension        Dim             ....   22

ORBITAL ENERGIES
----------------

  NO   OCC          E(Eh)            E(eV)
   0   2.0000     -10.177591      -276.9463
   1   2.0000      -0.862051       -23.4576
   2   2.0000      -0.518044       -14.0967
   3   2.0000      -0.517956       -14.0943
   4   2.0000      -0.517740       -14.0884
   5   0.0000       0.248798         6.7701
   6   0.0000       0.326347         8.8804
   7   0.0000       0.326664         8.8890
   8   0.0000       0.327284         8.9059
   9   0.0000       0.589636        16.0448

MULLIKEN ATOMIC CHARGES
-----------------------
   0 C :   -0.722940
   1 H :    0.182062
   2 H :    0.180079
   3 H :    0.180041
   4 H :    0.180758
Sum of atomic charges:    0.0000000

LOEWDIN ATOMIC CHARGES
----------------------
   0 C :   -0.602831
   1 H :    0.151047
   2 H :    0.150676
   3 H :    0.150604
   4 H :    0.150504

  Mayer bond orders larger than 0.1
B(  0-C ,  1-H ) :   0.9670 B(  0-C ,  2-H ) :   0.9679 B(  0-C ,  3-H ) :   0.9678
B(  0-C ,  4-H ) :   0.9675

Dispersion correction           -0.000006243
FINAL SINGLE POINT ENERGY       -40.391084325969

DIPOLE MOMENT
-------------
                                X             Y             Z
Electronic contribution:     -0.00037      -0.00073       0.00100
Nuclear contribution   :     -0.00000      -0.00000       0.00000
                        -----------------------------------------
Total Dipole Moment    :     -0.00037      -0.00073       0.00100
                        -----------------------------------------
Magnitude (a.u.)       :      0.00129
Magnitude (Debye)      :      0.00328

                             ****ORCA TERMINATED NORMALLY****
TOTAL RUN TIME: 0 days 0 hours 0 minutes 3 seconds 568 msec
