                         Program Version 4.0.0.2 - RELEASE -
|  1> ! WB97X-D3 6-31G(d) VerySlowConv
|  2> ! KDIIS NOSOSCF
|  3> %base "Scan_30"
|  4>
|  5> %scf
|  6> maxiter 999
|  7> end
|  8>
|  9> * xyz 0 1
| 10> C         -4.472707981160    1.925920680243    0.000001853570
| 11> H         -1.007542222511    1.925916411750   -0.000012356948
| 12> H         -5.627749301579    2.833637934525    3.138361723185
| 13> H         -5.627769060216   -1.245832154439   -0.783063655501
| 14> H         -5.627771434534    4.189957127922   -2.355277564305
| 15> **                         ****END OF INPUT****

CARTESIAN COORDINATES (ANGSTROEM)
---------------------------------
  C     -4.472708    1.925921    0.000002
  H     -1.007542    1.925916   -0.000012
  H     -5.627749    2.833638    3.138362
  H     -5.627769   -1.245832   -0.783064
  H     -5.627771    4.189957   -2.355278

 Total Charge           Charge          ....    0
 Multiplicity           Mult            ....    1
 Number of Electrons    NEL             ....   10
 Basis Dimension        Dim             ....   22

ORBITAL ENERGIES
----------------

  NO   OCC          E(Eh)            E(eV)
   0   2.0000     -10.541996      -286.8623
   1   2.0000      -0.710745       -19.3404
   2   2.0000      -0.305047        -8.3008
   3   2.0000      -0.303735        -8.2651
   4   2.0000      -0.303548        -8.2600
   5   0.0000      -0.183105        -4.9825
   6   0.0000      -0.125951        -3.4273
   7   0.0000      -0.124191        -3.3794
   8   0.0000      -0.123950        -3.3729
   9   0.0000       0.581286        15.8176

MULLIKEN ATOMIC CHARGES
-----------------------
   0 C :    0.140690
   1 H :   -0.033849
   2 H :   -0.035576
   3 H :   -0.035630
   4 H :   -0.035635
Sum of atomic charges:    0.0000000

LOEWDIN ATOMIC CHARGES
----------------------
   0 C :    0.127984
   1 H :   -0.030650
   2 H :   -0.032413
   3 H :   -0.032466
   4 H :   -0.032455

  Mayer bond orders larger than 0.1
B(  0-C ,  1-H ) :   0.6659 B(  0-C ,  2-H ) :   0.6380 B(  0-C ,  3-H ) :   0.6379
B(  0-C ,  4-H ) :   0.6465 B(  1-H ,  2-H ) :   0.1136 B(  1-H ,  3-H ) :   0.1125
B(  1-H ,  4-H ) :   0.1068 B(  2-H ,  3-H ) :   0.1251 B(  2-H ,  4-H ) :   0.1222
B(  3-H ,  4-H ) :   0.1233

Dispersion correction           -0.000802102
FINAL SINGLE POINT ENERGY       -39.476693120835

DIPOLE MOMENT
-------------
                                X             Y             Z
Electronic contribution:      0.01123      -0.00018       0.00071
Nuclear contribution   :     -0.00000      -0.00000       0.00000
                        -----------------------------------------
Total Dipole Moment    :      0.01123      -0.00018       0.00071
                        -----------------------------------------
Magnitude (a.u.)       :      0.01126
Magnitude (Debye)      :      0.02861

                             ****ORCA TERMINATED NORMALLY****
TOTAL RUN TIME: 0 days 0 hours 0 minutes 12 seconds 46 msec
