                         Program Version 4.0.0.2 - RELEASE -
|  1> ! WB97X-D3 6-31G(d) VerySlowConv
|  2> ! KDIIS NOSOSCF
|  3> %base "Scan_31"
|  4>
|  5> %scf
|  6> maxiter 999
|  7> end
|  8>
|  9> * xyz 0 1
| 10> C         -4.472707977361    1.925920735673    0.000001835088
| 11> H         -0.905030701396    1.925916275553   -0.000012765847
| 12> H         -5.661919391209    2.860491318788    3.231205199607
| 13> H         -5.661939723307   -1.339663467324   -0.806229406834
| 14> H         -5.661942206726    4.256935137309   -2.424954862013
| 15> **                         ****END OF INPUT****

CARTESIAN COORDINATES (ANGSTROEM)
---------------------------------
  C     -4.472708    1.925921    0.000002
  H     -0.905031    1.925916   -0.000013
  H     -5.661919    2.860491    3.231205
  H     -5.661940   -1.339663   -0.806229
  H     -5.661942    4.256935   -2.424955

 Total Charge           Charge          ....    0
 Multiplicity           Mult            ....    1
 Number of Electrons    NEL             ....   10
 Basis Dimension        Dim             ....   22

ORBITAL ENERGIES
----------------

  NO   OCC          E(Eh)            E(eV)
   0   2.0000     -10.541674      -286.8535
   1   2.0000      -0.712291       -19.3824
   2   2.0000      -0.302688        -8.2366
   3   2.0000      -0.300171        -8.1681
   4   2.0000      -0.298659        -8.1269
   5   0.0000      -0.183954        -5.0056
   6   0.0000      -0.131478        -3.5777
   7   0.0000      -0.128301        -3.4912
   8   0.0000      -0.126246        -3.4353
   9   0.0000       0.580192        15.7878

MULLIKEN ATOMIC CHARGES
-----------------------
   0 C :    0.149311
   1 H :   -0.034431
   2 H :   -0.038405
   3 H :   -0.038363
   4 H :   -0.038112
Sum of atomic charges:    0.0000000

LOEWDIN ATOMIC CHARGES
----------------------
   0 C :    0.139031
   1 H :   -0.031810
   2 H :   -0.035861
   3 H :   -0.035815
   4 H :   -0.035545

  Mayer bond orders larger than 0.1
B(  0-C ,  1-H ) :   0.6900 B(  0-C ,  2-H ) :   0.6217 B(  0-C ,  3-H ) :   0.6243
B(  0-C ,  4-H ) :   0.6372 B(  1-H ,  2-H ) :   0.1043 B(  1-H ,  4-H ) :   0.1083
B(  2-H ,  3-H ) :   0.1487 B(  2-H ,  4-H ) :   0.1238 B(  3-H ,  4-H ) :   0.1293

Dispersion correction           -0.000746955
FINAL SINGLE POINT ENERGY       -39.460923787186

DIPOLE MOMENT
-------------
                                X             Y             Z
Electronic contribution:      0.02588       0.00080      -0.00112
Nuclear contribution   :     -0.00000      -0.00000       0.00000
                        -----------------------------------------
Total Dipole Moment    :      0.02588       0.00080      -0.00112
                        -----------------------------------------
Magnitude (a.u.)       :      0.02592
Magnitude (Debye)      :      0.06588

                             ****ORCA TERMINATED NORMALLY****
TOTAL RUN TIME: 0 days 0 hours 0 minutes 35 seconds 459 msec
