                         Program Version 4.0.0.2 - RELEASE -
|  1> ! WB97X-D3 6-31G(d) VerySlowConv
|  2> ! KDIIS NOSOSCF
|  3> %base "Scan_32"
|  4>
|  5> %scf
|  6> maxiter 999
|  7> end
|  8>
|  9> * xyz 0 1
| 10> C         -4.472707977288    1.925920799124    0.000001810773
| 11> H         -0.802602563349    1.925916132651   -0.000013171826
| 12> H         -5.696061685822    2.887322854238    3.323973161825
| 13> H         -5.696082586534   -1.433418458315   -0.829376309015
| 14> H         -5.696085187006    4.323858672303   -2.494575491757
| 15> **                         ****END OF INPUT****

CARTESIAN COORDINATES (ANGSTROEM)
---------------------------------
  C     -4.472708    1.925921    0.000002
  H     -0.802603    1.925916   -0.000013
  H     -5.696062    2.887323    3.323973
  H     -5.696083   -1.433418   -0.829376
  H     -5.696085    4.323859   -2.494575

 Total Charge           Charge          ....    0
 Multiplicity           Mult            ....    1
 Number of Electrons    NEL             ....   10
 Basis Dimension        Dim             ....   22

ORBITAL ENERGIES
----------------

  NO   OCC          E(Eh)            E(eV)
   0   2.0000     -10.540856      -286.8313
   1   2.0000      -0.713521       -19.4159
   2   2.0000      -0.302312        -8.2263
   3   2.0000      -0.298147        -8.1130
   4   2.0000      -0.290812        -7.9134
   5   0.0000      -0.184552        -5.0219
   6   0.0000      -0.138599        -3.7715
   7   0.0000      -0.133872        -3.6429
   8   0.0000      -0.123794        -3.3686
   9   0.0000       0.580398        15.7934

MULLIKEN ATOMIC CHARGES
-----------------------
   0 C :    0.158586
   1 H :   -0.033544
   2 H :   -0.044392
   3 H :   -0.042300
   4 H :   -0.038350
Sum of atomic charges:    0.0000000

LOEWDIN ATOMIC CHARGES
----------------------
   0 C :    0.150364
   1 H :   -0.031347
   2 H :   -0.042486
   3 H :   -0.040308
   4 H :   -0.036224

  Mayer bond orders larger than 0.1
B(  0-C ,  1-H ) :   0.7564 B(  0-C ,  2-H ) :   0.5091 B(  0-C ,  3-H ) :   0.5757
B(  0-C ,  4-H ) :   0.6861 B(  1-H ,  2-H ) :   0.1043 B(  2-H ,  3-H ) :   0.2373
B(  2-H ,  4-H ) :   0.1473 B(  3-H ,  4-H ) :   0.1061

Dispersion correction           -0.000687708
FINAL SINGLE POINT ENERGY       -39.446507358993

DIPOLE MOMENT
-------------
                                X             Y             Z
Electronic contribution:      0.05841       0.01471      -0.03346
Nuclear contribution   :     -0.00000      -0.00000       0.00000
                        -----------------------------------------
Total Dipole Moment    :      0.05841       0.01471      -0.03346
                        -----------------------------------------
Magnitude (a.u.)       :      0.06890
Magnitude (Debye)      :      0.17513

                             ****ORCA TERMINATED NORMALLY****
TOTAL RUN TIME: 0 days 0 hours 1 minutes 3 seconds 356 msec
