                         Program Version 4.0.0.2 - RELEASE -
|  1> ! WB97X-D3 6-31G(d) VerySlowConv
|  2> ! KDIIS NOSOSCF
|  3> %base "Scan_33"
|  4>
|  5> %scf
|  6> maxiter 999
|  7> end
|  8>
|  9> * xyz 0 1
| 10> C         -4.472707977997    1.925920867339    0.000001785934
| 11> H         -0.700229219058    1.925915985262   -0.000013577161
| 12> H         -5.730185716428    2.914140032437    3.416691500639
| 13> H         -5.730207181823   -1.527123294619   -0.852510825890
| 14> H         -5.730209904695    4.390746409581   -2.564158883522
| 15> **                         ****END OF INPUT****

CARTESIAN COORDINATES (ANGSTROEM)
---------------------------------
  C     -4.472708    1.925921    0.000002
  H     -0.700229    1.925916   -0.000014
  H     -5.730186    2.914140    3.416692
  H     -5.730207   -1.527123   -0.852511
  H     -5.730210    4.390746   -2.564159

 Total Charge           Charge          ....    0
 Multiplicity           Mult            ....    1
 Number of Electrons    NEL             ....   10
 Basis Dimension        Dim             ....   22

ORBITAL ENERGIES
----------------

  NO   OCC          E(Eh)            E(eV)
   0   2.0000     -10.540761      -286.8287
   1   2.0000      -0.715089       -19.4586
   2   2.0000      -0.294592        -8.0163
   3   2.0000      -0.293530        -7.9873
   4   2.0000      -0.293399        -7.9838
   5   0.0000      -0.185280        -5.0417
   6   0.0000      -0.136567        -3.7162
   7   0.0000      -0.135243        -3.6801
   8   0.0000      -0.135094        -3.6761
   9   0.0000       0.580411        15.7938

MULLIKEN ATOMIC CHARGES
-----------------------
   0 C :    0.165884
   1 H :   -0.041561
   2 H :   -0.041704
   3 H :   -0.041872
   4 H :   -0.040747
Sum of atomic charges:   -0.0000000

LOEWDIN ATOMIC CHARGES
----------------------
   0 C :    0.159192
   1 H :   -0.039901
   2 H :   -0.040034
   3 H :   -0.040202
   4 H :   -0.039054

  Mayer bond orders larger than 0.1
B(  0-C ,  1-H ) :   0.6294 B(  0-C ,  2-H ) :   0.6359 B(  0-C ,  3-H ) :   0.6354
B(  0-C ,  4-H ) :   0.6580 B(  1-H ,  2-H ) :   0.1265 B(  1-H ,  3-H ) :   0.1272
B(  1-H ,  4-H ) :   0.1152 B(  2-H ,  3-H ) :   0.1232 B(  2-H ,  4-H ) :   0.1127
B(  3-H ,  4-H ) :   0.1125

Dispersion correction           -0.000625104
FINAL SINGLE POINT ENERGY       -39.433330902570

DIPOLE MOMENT
-------------
                                X             Y             Z
Electronic contribution:     -0.00173       0.00546      -0.00414
Nuclear contribution   :     -0.00000      -0.00000       0.00000
                        -----------------------------------------
Total Dipole Moment    :     -0.00173       0.00545      -0.00414
                        -----------------------------------------
Magnitude (a.u.)       :      0.00706
Magnitude (Debye)      :      0.01795

                             ****ORCA TERMINATED NORMALLY****
TOTAL RUN TIME: 0 days 0 hours 0 minutes 12 seconds 185 msec
