                         Program Version 4.0.0.2 - RELEASE -
|  1> ! WB97X-D3 6-31G(d) VerySlowConv
|  2> ! KDIIS NOSOSCF
|  3> %base "Scan_34"
|  4>
|  5> %scf
|  6> maxiter 999
|  7> end
|  8>
|  9> * xyz 0 1
| 10> C         -4.472707984380    1.925920946038    0.000001749472
| 11> H         -0.597891191304    1.925915827688   -0.000013971864
| 12> H         -5.764297968232    2.940947947633    3.509377859214
| 13> H         -5.764319997739   -1.620795810356   -0.875637349500
| 14> H         -5.764322858345    4.457611088998   -2.633718287322
| 15> **                         ****END OF INPUT****

CARTESIAN COORDINATES (ANGSTROEM)
---------------------------------
  C     -4.472708    1.925921    0.000002
  H     -0.597891    1.925916   -0.000014
  H     -5.764298    2.940948    3.509378
  H     -5.764320   -1.620796   -0.875637
  H     -5.764323    4.457611   -2.633718

 Total Charge           Charge          ....    0
 Multiplicity           Mult            ....    1
 Number of Electrons    NEL             ....   10
 Basis Dimension        Dim             ....   22

ORBITAL ENERGIES
----------------

  NO   OCC          E(Eh)            E(eV)
   0   2.0000     -10.531137      -286.5668
   1   2.0000      -0.709856       -19.3162
   2   2.0000      -0.298617        -8.1258
   3   2.0000      -0.298387        -8.1195
   4   2.0000      -0.274495        -7.4694
   5   0.0000      -0.185682        -5.0527
   6   0.0000      -0.148322        -4.0360
   7   0.0000      -0.148006        -4.0274
   8   0.0000      -0.102918        -2.8005
   9   0.0000       0.584801        15.9133

MULLIKEN ATOMIC CHARGES
-----------------------
   0 C :    0.167432
   1 H :   -0.040403
   2 H :   -0.041178
   3 H :   -0.042490
   4 H :   -0.043361
Sum of atomic charges:   -0.0000000

LOEWDIN ATOMIC CHARGES
----------------------
   0 C :    0.162672
   1 H :   -0.039158
   2 H :   -0.039957
   3 H :   -0.041327
   4 H :   -0.042230

  Mayer bond orders larger than 0.1
B(  0-C ,  1-H ) :   0.5992 B(  0-C ,  2-H ) :   0.5730 B(  0-C ,  3-H ) :   0.5172
B(  0-C ,  4-H ) :   0.4870 B(  1-H ,  2-H ) :   0.1827 B(  1-H ,  3-H ) :   0.2063
B(  2-H ,  4-H ) :   0.2345 B(  3-H ,  4-H ) :   0.2665

Dispersion correction           -0.000561188
FINAL SINGLE POINT ENERGY       -39.423153083540

DIPOLE MOMENT
-------------
                                X             Y             Z
Electronic contribution:      0.01503      -0.00200       0.01473
Nuclear contribution   :     -0.00000      -0.00000       0.00000
                        -----------------------------------------
Total Dipole Moment    :      0.01503      -0.00200       0.01473
                        -----------------------------------------
Magnitude (a.u.)       :      0.02114
Magnitude (Debye)      :      0.05373

                             ****ORCA TERMINATED NORMALLY****
TOTAL RUN TIME: 0 days 0 hours 0 minutes 22 seconds 131 msec
