                         Program Version 4.0.0.2 - RELEASE -
|  1> ! WB97X-D3 6-31G(d) VerySlowConv
|  2> ! KDIIS NOSOSCF
|  3> %base "Scan_35"
|  4>
|  5> %scf
|  6> maxiter 999
|  7> end
|  8>
|  9> * xyz 0 1
| 10> C         -4.472707988121    1.925921023971    0.000001718835
| 11> H         -0.495575610644    1.925915671851   -0.000014372577
| 12> H         -5.798402742452    2.967749985931    3.602043886922
| 13> H         -5.798425332478   -1.714447774667   -0.898758805291
| 14> H         -5.798428326305    4.524461092915   -2.703262427889
| 15> **                         ****END OF INPUT****

CARTESIAN COORDINATES (ANGSTROEM)
---------------------------------
  C     -4.472708    1.925921    0.000002
  H     -0.495576    1.925916   -0.000014
  H     -5.798403    2.967750    3.602044
  H     -5.798425   -1.714448   -0.898759
  H     -5.798428    4.524461   -2.703262

 Total Charge           Charge          ....    0
 Multiplicity           Mult            ....    1
 Number of Electrons    NEL             ....   10
 Basis Dimension        Dim             ....   22

ORBITAL ENERGIES
----------------

  NO   OCC          E(Eh)            E(eV)
   0   2.0000     -10.539448      -286.7930
   1   2.0000      -0.717153       -19.5147
   2   2.0000      -0.288237        -7.8433
   3   2.0000      -0.288073        -7.8389
   4   2.0000      -0.287272        -7.8171
   5   0.0000      -0.186186        -5.0664
   6   0.0000      -0.141696        -3.8557
   7   0.0000      -0.141550        -3.8518
   8   0.0000      -0.140465        -3.8223
   9   0.0000       0.580694        15.8015

MULLIKEN ATOMIC CHARGES
-----------------------
   0 C :    0.179012
   1 H :   -0.044936
   2 H :   -0.044400
   3 H :   -0.044425
   4 H :   -0.045251
Sum of atomic charges:   -0.0000000

LOEWDIN ATOMIC CHARGES
----------------------
   0 C :    0.174729
   1 H :   -0.043873
   2 H :   -0.043322
   3 H :   -0.043348
   4 H :   -0.044186

  Mayer bond orders larger than 0.1
B(  0-C ,  1-H ) :   0.6287 B(  0-C ,  2-H ) :   0.6447 B(  0-C ,  3-H ) :   0.6442
B(  0-C ,  4-H ) :   0.6272 B(  1-H ,  2-H ) :   0.1195 B(  1-H ,  3-H ) :   0.1189
B(  1-H ,  4-H ) :   0.1309 B(  2-H ,  3-H ) :   0.1145 B(  2-H ,  4-H ) :   0.1194
B(  3-H ,  4-H ) :   0.1204

Dispersion correction           -0.000498516
FINAL SINGLE POINT ENERGY       -39.410349235439

DIPOLE MOMENT
-------------
                                X             Y             Z
Electronic contribution:     -0.00256      -0.00445       0.00493
Nuclear contribution   :     -0.00000      -0.00000       0.00000
                        -----------------------------------------
Total Dipole Moment    :     -0.00256      -0.00445       0.00493
                        -----------------------------------------
Magnitude (a.u.)       :      0.00712
Magnitude (Debye)      :      0.01809

                             ****ORCA TERMINATED NORMALLY****
TOTAL RUN TIME: 0 days 0 hours 0 minutes 11 seconds 278 msec
