                         Program Version 4.0.0.2 - RELEASE -
|  1> ! WB97X-D3 6-31G(d) VerySlowConv
|  2> ! KDIIS NOSOSCF
|  3> %base "Scan_36"
|  4>
|  5> %scf
|  6> maxiter 999
|  7> end
|  8>
|  9> * xyz 0 1
| 10> C         -4.472707993438    1.925921107765    0.000001684332
| 11> H         -0.393274109665    1.925915510216   -0.000014769844
| 12> H         -5.832502821921    2.994548329956    3.694697165334
| 13> H         -5.832525970010   -1.808086850376   -0.921877074004
| 14> H         -5.832529104966    4.591301902440   -2.772797005819
| 15> **                         ****END OF INPUT****

CARTESIAN COORDINATES (ANGSTROEM)
---------------------------------
  C     -4.472708    1.925921    0.000002
  H     -0.393274    1.925916   -0.000015
  H     -5.832503    2.994548    3.694697
  H     -5.832526   -1.808087   -0.921877
  H     -5.832529    4.591302   -2.772797

 Total Charge           Charge          ....    0
 Multiplicity           Mult            ....    1
 Number of Electrons    NEL             ....   10
 Basis Dimension        Dim             ....   22

ORBITAL ENERGIES
----------------

  NO   OCC          E(Eh)            E(eV)
   0   2.0000     -10.538903      -286.7781
   1   2.0000      -0.718066       -19.5396
   2   2.0000      -0.285562        -7.7705
   3   2.0000      -0.285126        -7.7587
   4   2.0000      -0.284776        -7.7492
   5   0.0000      -0.186557        -5.0765
   6   0.0000      -0.144255        -3.9254
   7   0.0000      -0.143646        -3.9088
   8   0.0000      -0.143185        -3.8963
   9   0.0000       0.580573        15.7982

MULLIKEN ATOMIC CHARGES
-----------------------
   0 C :    0.184578
   1 H :   -0.045590
   2 H :   -0.046245
   3 H :   -0.046250
   4 H :   -0.046493
Sum of atomic charges:    0.0000000

LOEWDIN ATOMIC CHARGES
----------------------
   0 C :    0.181174
   1 H :   -0.044740
   2 H :   -0.045392
   3 H :   -0.045397
   4 H :   -0.045645

  Mayer bond orders larger than 0.1
B(  0-C ,  1-H ) :   0.6368 B(  0-C ,  2-H ) :   0.6375 B(  0-C ,  3-H ) :   0.6369
B(  0-C ,  4-H ) :   0.6280 B(  1-H ,  2-H ) :   0.1182 B(  1-H ,  3-H ) :   0.1167
B(  1-H ,  4-H ) :   0.1262 B(  2-H ,  3-H ) :   0.1213 B(  2-H ,  4-H ) :   0.1208
B(  3-H ,  4-H ) :   0.1229

Dispersion correction           -0.000439301
FINAL SINGLE POINT ENERGY       -39.400368139176

DIPOLE MOMENT
-------------
                                X             Y             Z
Electronic contribution:      0.00501      -0.00155       0.00172
Nuclear contribution   :     -0.00000      -0.00000       0.00000
                        -----------------------------------------
Total Dipole Moment    :      0.00501      -0.00155       0.00173
                        -----------------------------------------
Magnitude (a.u.)       :      0.00552
Magnitude (Debye)      :      0.01403

                             ****ORCA TERMINATED NORMALLY****
TOTAL RUN TIME: 0 days 0 hours 0 minutes 11 seconds 167 msec
