                         Program Version 4.0.0.2 - RELEASE -
|  1> ! WB97X-D3 6-31G(d) VerySlowConv
|  2> ! KDIIS NOSOSCF
|  3> %base "Scan_37"
|  4>
|  5> %scf
|  6> maxiter 999
|  7> end
|  8>
|  9> * xyz 0 1
| 10> C         -4.472707992165    1.925921185483    0.000001663158
| 11> H         -0.290981372931    1.925915353646   -0.000015177877
| 12> H         -5.866599988047    3.021344385334    3.787342502643
| 13> H         -5.866623689859   -1.901717894893   -0.944993371799
| 14> H         -5.866626956998    4.658136970431   -2.842325616125
| 15> **                         ****END OF INPUT****

CARTESIAN COORDINATES (ANGSTROEM)
---------------------------------
  C     -4.472708    1.925921    0.000002
  H     -0.290981    1.925915   -0.000015
  H     -5.866600    3.021344    3.787343
  H     -5.866624   -1.901718   -0.944993
  H     -5.866627    4.658137   -2.842326

 Total Charge           Charge          ....    0
 Multiplicity           Mult            ....    1
 Number of Electrons    NEL             ....   10
 Basis Dimension        Dim             ....   22

ORBITAL ENERGIES
----------------

  NO   OCC          E(Eh)            E(eV)
   0   2.0000     -10.532998      -286.6175
   1   2.0000      -0.719439       -19.5769
   2   2.0000      -0.280518        -7.6333
   3   2.0000      -0.277803        -7.5594
   4   2.0000      -0.276747        -7.5307
   5   0.0000      -0.185683        -5.0527
   6   0.0000      -0.160383        -4.3642
   7   0.0000      -0.145738        -3.9657
   8   0.0000      -0.140833        -3.8323
   9   0.0000       0.580141        15.7864

MULLIKEN ATOMIC CHARGES
-----------------------
   0 C :    0.210645
   1 H :   -0.048202
   2 H :   -0.059469
   3 H :   -0.058310
   4 H :   -0.044664
Sum of atomic charges:   -0.0000000

LOEWDIN ATOMIC CHARGES
----------------------
   0 C :    0.209803
   1 H :   -0.048608
   2 H :   -0.058849
   3 H :   -0.057713
   4 H :   -0.044633

  Mayer bond orders larger than 0.1
B(  0-C ,  1-H ) :   0.6867 B(  0-C ,  2-H ) :   0.5597 B(  0-C ,  3-H ) :   0.5693
B(  0-C ,  4-H ) :   0.6792 B(  1-H ,  2-H ) :   0.1293 B(  1-H ,  3-H ) :   0.1168
B(  2-H ,  3-H ) :   0.1820 B(  2-H ,  4-H ) :   0.1255 B(  3-H ,  4-H ) :   0.1284

Dispersion correction           -0.000385004
FINAL SINGLE POINT ENERGY       -39.373920910461

DIPOLE MOMENT
-------------
                                X             Y             Z
Electronic contribution:      0.04441       0.05577      -0.06671
Nuclear contribution   :     -0.00000      -0.00000       0.00000
                        -----------------------------------------
Total Dipole Moment    :      0.04441       0.05577      -0.06671
                        -----------------------------------------
Magnitude (a.u.)       :      0.09764
Magnitude (Debye)      :      0.24818

                             ****ORCA TERMINATED NORMALLY****
TOTAL RUN TIME: 0 days 0 hours 0 minutes 37 seconds 172 msec
