                         Program Version 4.0.0.2 - RELEASE -
|  1> ! WB97X-D3 6-31G(d) VerySlowConv
|  2> ! KDIIS NOSOSCF
|  3> %base "Scan_38"
|  4>
|  5> %scf
|  6> maxiter 999
|  7> end
|  8>
|  9> * xyz 0 1
| 10> C         -4.472707994050    1.925921270604    0.000001634633
| 11> H         -0.188694097521    1.925915191166   -0.000015580752
| 12> H         -5.900695330779    3.048139003490    3.879982896448
| 13> H         -5.900719585229   -1.995343941332   -0.968108428938
| 14> H         -5.900722992420    4.724968476071   -2.911850521391
| 15> **                         ****END OF INPUT****

CARTESIAN COORDINATES (ANGSTROEM)
---------------------------------
  C     -4.472708    1.925921    0.000002
  H     -0.188694    1.925915   -0.000016
  H     -5.900695    3.048139    3.879983
  H     -5.900720   -1.995344   -0.968108
  H     -5.900723    4.724968   -2.911851

 Total Charge           Charge          ....    0
 Multiplicity           Mult            ....    1
 Number of Electrons    NEL             ....   10
 Basis Dimension        Dim             ....   22

ORBITAL ENERGIES
----------------

  NO   OCC          E(Eh)            E(eV)
   0   2.0000     -10.478413      -285.1321
   1   2.0000      -0.674514       -18.3544
   2   2.0000      -0.321563        -8.7502
   3   2.0000      -0.264625        -7.2008
   4   2.0000      -0.264198        -7.1892
   5   0.0000      -0.188283        -5.1234
   6   0.0000      -0.184612        -5.0235
   7   0.0000      -0.067902        -1.8477
   8   0.0000      -0.067519        -1.8373
   9   0.0000       0.614810        16.7298

MULLIKEN ATOMIC CHARGES
-----------------------
   0 C :    0.125398
   1 H :   -0.039669
   2 H :   -0.022685
   3 H :   -0.023436
   4 H :   -0.039607
Sum of atomic charges:    0.0000000

LOEWDIN ATOMIC CHARGES
----------------------
   0 C :    0.124871
   1 H :   -0.039613
   2 H :   -0.022477
   3 H :   -0.023230
   4 H :   -0.039551

  Mayer bond orders larger than 0.1
B(  0-C ,  2-H ) :   0.1299 B(  0-C ,  3-H ) :   0.1305 B(  1-H ,  4-H ) :   0.9040
B(  2-H ,  3-H ) :   0.7810

Dispersion correction           -0.000336315
FINAL SINGLE POINT ENERGY       -39.416501775183

DIPOLE MOMENT
-------------
                                X             Y             Z
Electronic contribution:     -0.08972      -0.08366       0.09420
Nuclear contribution   :     -0.00000      -0.00000       0.00000
                        -----------------------------------------
Total Dipole Moment    :     -0.08972      -0.08366       0.09420
                        -----------------------------------------
Magnitude (a.u.)       :      0.15467
Magnitude (Debye)      :      0.39314

                             ****ORCA TERMINATED NORMALLY****
TOTAL RUN TIME: 0 days 0 hours 0 minutes 21 seconds 872 msec
