                         Program Version 4.0.0.2 - RELEASE -
|  1> ! WB97X-D3 6-31G(d) VerySlowConv
|  2> ! KDIIS NOSOSCF
|  3> %base "Scan_39"
|  4>
|  5> %scf
|  6> maxiter 999
|  7> end
|  8>
|  9> * xyz 0 1
| 10> C         -4.472707997874    1.925921361113    0.000001601389
| 11> H         -0.086410264468    1.925915024104   -0.000015979608
| 12> H         -5.934789523717    3.074932714759    3.972620174599
| 13> H         -5.934814330169   -2.088966837923   -0.991222703230
| 14> H         -5.934817883773    4.791797737948   -2.981373093151
| 15> **                         ****END OF INPUT****

CARTESIAN COORDINATES (ANGSTROEM)
---------------------------------
  C     -4.472708    1.925921    0.000002
  H     -0.086410    1.925915   -0.000016
  H     -5.934790    3.074933    3.972620
  H     -5.934814   -2.088967   -0.991223
  H     -5.934818    4.791798   -2.981373

 Total Charge           Charge          ....    0
 Multiplicity           Mult            ....    1
 Number of Electrons    NEL             ....   10
 Basis Dimension        Dim             ....   22

ORBITAL ENERGIES
----------------

  NO   OCC          E(Eh)            E(eV)
   0   2.0000     -10.471332      -284.9394
   1   2.0000      -0.669403       -18.2154
   2   2.0000      -0.317068        -8.6279
   3   2.0000      -0.263653        -7.1744
   4   2.0000      -0.263382        -7.1670
   5   0.0000      -0.189723        -5.1626
   6   0.0000      -0.186198        -5.0667
   7   0.0000      -0.063362        -1.7242
   8   0.0000      -0.063208        -1.7200
   9   0.0000       0.619786        16.8652

MULLIKEN ATOMIC CHARGES
-----------------------
   0 C :    0.109409
   1 H :   -0.015748
   2 H :   -0.029658
   3 H :   -0.030724
   4 H :   -0.033280
Sum of atomic charges:   -0.0000000

LOEWDIN ATOMIC CHARGES
----------------------
   0 C :    0.109124
   1 H :   -0.015651
   2 H :   -0.029542
   3 H :   -0.030643
   4 H :   -0.033288

  Mayer bond orders larger than 0.1
B(  0-C ,  2-H ) :   0.1047 B(  1-H ,  2-H ) :   0.2034 B(  1-H ,  4-H ) :   0.7401
B(  2-H ,  3-H ) :   0.6910 B(  3-H ,  4-H ) :   0.2503

Dispersion correction           -0.000293336
FINAL SINGLE POINT ENERGY       -39.413095271513

DIPOLE MOMENT
-------------
                                X             Y             Z
Electronic contribution:      0.12628      -0.01165       0.02278
Nuclear contribution   :     -0.00000      -0.00000       0.00000
                        -----------------------------------------
Total Dipole Moment    :      0.12628      -0.01165       0.02279
                        -----------------------------------------
Magnitude (a.u.)       :      0.12884
Magnitude (Debye)      :      0.32750

                             ****ORCA TERMINATED NORMALLY****
TOTAL RUN TIME: 0 days 0 hours 1 minutes 13 seconds 156 msec
