                         Program Version 4.0.0.2 - RELEASE -
|  1> ! WB97X-D3 6-31G(d) VerySlowConv
|  2> ! KDIIS NOSOSCF
|  3> %base "Scan_40"
|  4>
|  5> %scf
|  6> maxiter 999
|  7> end
|  8>
|  9> * xyz 0 1
| 10> C         -4.472708000976    1.925921453785    0.000001568807
| 11> H          0.015871343274    1.925914854446   -0.000016377983
| 12> H         -5.968882975096    3.101725840558    4.065255437988
| 13> H         -5.968908331836   -2.182587695828   -1.014336473050
| 14> H         -5.968912035366    4.858625547039   -3.050894155761
| 15> **                         ****END OF INPUT****

CARTESIAN COORDINATES (ANGSTROEM)
---------------------------------
  C     -4.472708    1.925921    0.000002
  H      0.015871    1.925915   -0.000016
  H     -5.968883    3.101726    4.065255
  H     -5.968908   -2.182588   -1.014336
  H     -5.968912    4.858626   -3.050894

 Total Charge           Charge          ....    0
 Multiplicity           Mult            ....    1
 Number of Electrons    NEL             ....   10
 Basis Dimension        Dim             ....   22

ORBITAL ENERGIES
----------------

  NO   OCC          E(Eh)            E(eV)
   0   2.0000     -11.508721      -313.1682
   1   2.0000      -1.392129       -37.8818
   2   2.0000      -0.210511        -5.7283
   3   2.0000      -0.210496        -5.7279
   4   2.0000      -0.210481        -5.7275
   5   0.0000      -0.759317       -20.6621
   6   0.0000      -0.759275       -20.6609
   7   0.0000      -0.759268       -20.6607
   8   0.0000      -0.138173        -3.7599
   9   0.0000       0.122219         3.3258

MULLIKEN ATOMIC CHARGES
-----------------------
   0 C :    1.991966
   1 H :   -0.497783
   2 H :   -0.498247
   3 H :   -0.498288
   4 H :   -0.497648
Sum of atomic charges:    0.0000000

LOEWDIN ATOMIC CHARGES
----------------------
   0 C :    1.992186
   1 H :   -0.497838
   2 H :   -0.498302
   3 H :   -0.498343
   4 H :   -0.497703

  Mayer bond orders larger than 0.1
B(  1-H ,  2-H ) :   0.2493 B(  1-H ,  3-H ) :   0.2493 B(  1-H ,  4-H ) :   0.2496
B(  2-H ,  3-H ) :   0.2491 B(  2-H ,  4-H ) :   0.2494 B(  3-H ,  4-H ) :   0.2494

Dispersion correction           -0.000255793
FINAL SINGLE POINT ENERGY       -38.793493744154

DIPOLE MOMENT
-------------
                                X             Y             Z
Electronic contribution:      0.00214       0.00362      -0.00332
Nuclear contribution   :      0.00000      -0.00001       0.00000
                        -----------------------------------------
Total Dipole Moment    :      0.00214       0.00362      -0.00332
                        -----------------------------------------
Magnitude (a.u.)       :      0.00535
Magnitude (Debye)      :      0.01361

                             ****ORCA TERMINATED NORMALLY****
TOTAL RUN TIME: 0 days 0 hours 0 minutes 8 seconds 281 msec
