                         Program Version 4.0.0.2 - RELEASE -
|  1> ! WB97X-D3 6-31G(d) VerySlowConv
|  2> ! KDIIS NOSOSCF
|  3> %base "Scan_41"
|  4>
|  5> %scf
|  6> maxiter 999
|  7> end
|  8>
|  9> * xyz 0 1
| 10> C         -4.472708003197    1.925921548357    0.000001537172
| 11> H          0.118151453275    1.925914682776   -0.000016776639
| 12> H         -6.002975927975    3.128518572192    4.157889345252
| 13> H         -6.003001833128   -2.276207180392   -1.037449903582
| 14> H         -6.003005688975    4.925452377066   -3.120414202203
| 15> **                         ****END OF INPUT****

CARTESIAN COORDINATES (ANGSTROEM)
---------------------------------
  C     -4.472708    1.925922    0.000002
  H      0.118151    1.925915   -0.000017
  H     -6.002976    3.128519    4.157889
  H     -6.003002   -2.276207   -1.037450
  H     -6.003006    4.925452   -3.120414

 Total Charge           Charge          ....    0
 Multiplicity           Mult            ....    1
 Number of Electrons    NEL             ....   10
 Basis Dimension        Dim             ....   22

ORBITAL ENERGIES
----------------

  NO   OCC          E(Eh)            E(eV)
   0   2.0000     -11.514928      -313.3371
   1   2.0000      -1.398028       -38.0423
   2   2.0000      -0.207093        -5.6353
   3   2.0000      -0.207084        -5.6350
   4   2.0000      -0.207079        -5.6349
   5   0.0000      -0.765191       -20.8219
   6   0.0000      -0.765157       -20.8210
   7   0.0000      -0.765151       -20.8208
   8   0.0000      -0.136404        -3.7117
   9   0.0000       0.116582         3.1724

MULLIKEN ATOMIC CHARGES
-----------------------
   0 C :    1.994308
   1 H :   -0.498313
   2 H :   -0.498930
   3 H :   -0.498854
   4 H :   -0.498211
Sum of atomic charges:   -0.0000000

LOEWDIN ATOMIC CHARGES
----------------------
   0 C :    1.994458
   1 H :   -0.498350
   2 H :   -0.498968
   3 H :   -0.498892
   4 H :   -0.498248

  Mayer bond orders larger than 0.1
B(  1-H ,  2-H ) :   0.2495 B(  1-H ,  3-H ) :   0.2495 B(  1-H ,  4-H ) :   0.2498
B(  2-H ,  3-H ) :   0.2492 B(  2-H ,  4-H ) :   0.2495 B(  3-H ,  4-H ) :   0.2496

Dispersion correction           -0.000223213
FINAL SINGLE POINT ENERGY       -38.783776068083

DIPOLE MOMENT
-------------
                                X             Y             Z
Electronic contribution:      0.00290       0.00347      -0.00436
Nuclear contribution   :      0.00000      -0.00001       0.00000
                        -----------------------------------------
Total Dipole Moment    :      0.00290       0.00346      -0.00435
                        -----------------------------------------
Magnitude (a.u.)       :      0.00627
Magnitude (Debye)      :      0.01595

                             ****ORCA TERMINATED NORMALLY****
TOTAL RUN TIME: 0 days 0 hours 0 minutes 7 seconds 920 msec
