                         Program Version 4.0.0.2 - RELEASE -
|  1> ! WB97X-D3 6-31G(d) VerySlowConv
|  2> ! KDIIS NOSOSCF
|  3> %base "Scan_42"
|  4>
|  5> %scf
|  6> maxiter 1999
|  7> end
|  8>
|  9> * xyz 0 1
| 10> C         -4.472707998943    1.925921637682    0.000001517733
| 11> H          0.220430508132    1.925914516788   -0.000017187693
| 12> H         -6.037068538630    3.155311035439    4.250522292541
| 13> H         -6.037094986747   -2.369825686691   -1.060563106391
| 14> H         -6.037098983812    4.992278496782   -3.189933516190
| 15> *
| 16>
| 17>                          ****END OF INPUT****

CARTESIAN COORDINATES (ANGSTROEM)
---------------------------------
  C     -4.472708    1.925922    0.000002
  H      0.220431    1.925915   -0.000017
  H     -6.037069    3.155311    4.250522
  H     -6.037095   -2.369826   -1.060563
  H     -6.037099    4.992278   -3.189934

 Total Charge           Charge          ....    0
 Multiplicity           Mult            ....    1
 Number of Electrons    NEL             ....   10
 Basis Dimension        Dim             ....   22

ORBITAL ENERGIES
----------------

  NO   OCC          E(Eh)            E(eV)
   0   2.0000     -10.513772      -286.0943
   1   2.0000      -0.706747       -19.2316
   2   2.0000      -0.282091        -7.6761
   3   2.0000      -0.274091        -7.4584
   4   2.0000      -0.256359        -6.9759
   5   0.0000      -0.187458        -5.1010
   6   0.0000      -0.171116        -4.6563
   7   0.0000      -0.163513        -4.4494
   8   0.0000      -0.095466        -2.5978
   9   0.0000       0.589893        16.0518

MULLIKEN ATOMIC CHARGES
-----------------------
   0 C :    0.187733
   1 H :   -0.049793
   2 H :   -0.030847
   3 H :   -0.048551
   4 H :   -0.058541
Sum of atomic charges:   -0.0000000

LOEWDIN ATOMIC CHARGES
----------------------
   0 C :    0.187935
   1 H :   -0.049907
   2 H :   -0.030930
   3 H :   -0.048566
   4 H :   -0.058532

  Mayer bond orders larger than 0.1
B(  0-C ,  1-H ) :   0.4345 B(  0-C ,  2-H ) :   0.9695 B(  0-C ,  3-H ) :   0.5453
B(  1-H ,  4-H ) :   0.5375 B(  3-H ,  4-H ) :   0.4293

Dispersion correction           -0.000195046
FINAL SINGLE POINT ENERGY       -39.357759249917

DIPOLE MOMENT
-------------
                                X             Y             Z
Electronic contribution:     -0.02571      -0.01326       0.19750
Nuclear contribution   :     -0.00000      -0.00001       0.00000
                        -----------------------------------------
Total Dipole Moment    :     -0.02571      -0.01326       0.19750
                        -----------------------------------------
Magnitude (a.u.)       :      0.19961
Magnitude (Debye)      :      0.50737

                             ****ORCA TERMINATED NORMALLY****
TOTAL RUN TIME: 0 days 0 hours 4 minutes 41 seconds 19 msec
