                         Program Version 4.0.0.2 - RELEASE -
|  1> ! WB97X-D3 6-31G(d) VerySlowConv
|  2> ! KDIIS NOSOSCF
|  3> %base "Scan_43"
|  4>
|  5> %scf
|  6> maxiter 999
|  7> end
|  8>
|  9> * xyz 0 1
| 10> C         -4.472707991981    1.925921726677    0.000001502817
| 11> H          0.322708753535    1.925914351388   -0.000017603170
| 12> H         -6.071160883225    3.182103288134    4.343154505413
| 13> H         -6.071187871167   -2.463443446048   -1.083676129353
| 14> H         -6.071192007162    5.059104079848   -3.259452275707
| 15> **                         ****END OF INPUT****

CARTESIAN COORDINATES (ANGSTROEM)
---------------------------------
  C     -4.472708    1.925922    0.000002
  H      0.322709    1.925914   -0.000018
  H     -6.071161    3.182103    4.343155
  H     -6.071188   -2.463443   -1.083676
  H     -6.071192    5.059104   -3.259452

 Total Charge           Charge          ....    0
 Multiplicity           Mult            ....    1
 Number of Electrons    NEL             ....   10
 Basis Dimension        Dim             ....   22

ORBITAL ENERGIES
----------------

  NO   OCC          E(Eh)            E(eV)
   0   2.0000     -10.688518      -290.8494
   1   2.0000      -0.836636       -22.7660
   2   2.0000      -0.442424       -12.0390
   3   2.0000      -0.003010        -0.0819
   4   2.0000       0.000979         0.0266
   5   0.0000      -0.450486       -12.2583
   6   0.0000      -0.333637        -9.0787
   7   0.0000      -0.221394        -6.0244
   8   0.0000      -0.216649        -5.8953
   9   0.0000       0.478956        13.0331

MULLIKEN ATOMIC CHARGES
-----------------------
   0 C :    0.593716
   1 H :   -0.999755
   2 H :   -0.999744
   3 H :    0.405796
   4 H :    0.999987
Sum of atomic charges:    0.0000000

LOEWDIN ATOMIC CHARGES
----------------------
   0 C :    0.593796
   1 H :   -0.999764
   2 H :   -0.999754
   3 H :    0.405736
   4 H :    0.999987

  Mayer bond orders larger than 0.1
B(  0-C ,  3-H ) :   0.8353

Dispersion correction           -0.000170737
FINAL SINGLE POINT ENERGY       -38.904060872570

DIPOLE MOMENT
-------------
                                X             Y             Z
Electronic contribution:    -10.23682       0.17799     -15.07055
Nuclear contribution   :     -0.00000      -0.00001       0.00000
                        -----------------------------------------
Total Dipole Moment    :    -10.23682       0.17799     -15.07055
                        -----------------------------------------
Magnitude (a.u.)       :     18.21938
Magnitude (Debye)      :     46.30997

                             ****ORCA TERMINATED NORMALLY****
TOTAL RUN TIME: 0 days 0 hours 0 minutes 31 seconds 186 msec
