                         Program Version 4.0.0.2 - RELEASE -
|  1> ! WB97X-D3 6-31G(d) VerySlowConv
|  2> ! KDIIS NOSOSCF
|  3> %base "Scan_44"
|  4>
|  5> %scf
|  6> maxiter 999
|  7> end
|  8>
|  9> * xyz 0 1
| 10> C         -4.472707991088    1.925921826497    0.000001474782
| 11> H          0.424986347576    1.925914175085   -0.000018004907
| 12> H         -6.105253001354    3.208895357007    4.435786134172
| 13> H         -6.105280531301   -2.557060618097   -1.106788990885
| 14> H         -6.105284823832    5.125929259508   -3.328970613163
| 15> **                         ****END OF INPUT****

CARTESIAN COORDINATES (ANGSTROEM)
---------------------------------
  C     -4.472708    1.925922    0.000001
  H      0.424986    1.925914   -0.000018
  H     -6.105253    3.208895    4.435786
  H     -6.105281   -2.557061   -1.106789
  H     -6.105285    5.125929   -3.328971

 Total Charge           Charge          ....    0
 Multiplicity           Mult            ....    1
 Number of Electrons    NEL             ....   10
 Basis Dimension        Dim             ....   22

ORBITAL ENERGIES
----------------

  NO   OCC          E(Eh)            E(eV)
   0   2.0000     -11.525615      -313.6279
   1   2.0000      -1.409852       -38.3640
   2   2.0000      -0.345230        -9.3942
   3   2.0000      -0.060191        -1.6379
   4   2.0000      -0.060031        -1.6335
   5   0.0000      -0.778100       -21.1732
   6   0.0000      -0.776801       -21.1378
   7   0.0000      -0.775850       -21.1120
   8   0.0000      -0.279058        -7.5935
   9   0.0000       0.098868         2.6903

MULLIKEN ATOMIC CHARGES
-----------------------
   0 C :    1.984971
   1 H :   -0.000116
   2 H :   -0.992561
   3 H :   -0.992561
   4 H :    0.000268
Sum of atomic charges:   -0.0000000

LOEWDIN ATOMIC CHARGES
----------------------
   0 C :    1.985103
   1 H :   -0.000119
   2 H :   -0.992624
   3 H :   -0.992625
   4 H :    0.000265

  Mayer bond orders larger than 0.1
B(  1-H ,  4-H ) :   0.9998

Dispersion correction           -0.000149765
FINAL SINGLE POINT ENERGY       -38.614230537144

DIPOLE MOMENT
-------------
                                X             Y             Z
Electronic contribution:      6.08904       5.97119      -6.21186
Nuclear contribution   :     -0.00000      -0.00001       0.00000
                        -----------------------------------------
Total Dipole Moment    :      6.08904       5.97118      -6.21186
                        -----------------------------------------
Magnitude (a.u.)       :     10.55076
Magnitude (Debye)      :     26.81790

                             ****ORCA TERMINATED NORMALLY****
TOTAL RUN TIME: 0 days 0 hours 0 minutes 13 seconds 742 msec
