                         Program Version 4.0.0.2 - RELEASE -
|  1> ! WB97X-D3 6-31G(d) VerySlowConv
|  2> ! KDIIS NOSOSCF
|  3> %base "Scan_45"
|  4>
|  5> %scf
|  6> maxiter 999
|  7> end
|  8>
|  9> * xyz 0 1
| 10> C         -4.472707992881    1.925921932861    0.000001440441
| 11> H          0.527263399665    1.925913993889   -0.000018402443
| 12> H         -6.139344936419    3.235687278453    4.528417274327
| 13> H         -6.139373007500   -2.650677294616   -1.129901724668
| 14> H         -6.139377462865    5.192754089414   -3.398488587657
| 15> **                         ****END OF INPUT****

CARTESIAN COORDINATES (ANGSTROEM)
---------------------------------
  C     -4.472708    1.925922    0.000001
  H      0.527263    1.925914   -0.000018
  H     -6.139345    3.235687    4.528417
  H     -6.139373   -2.650677   -1.129902
  H     -6.139377    5.192754   -3.398489

 Total Charge           Charge          ....    0
 Multiplicity           Mult            ....    1
 Number of Electrons    NEL             ....   10
 Basis Dimension        Dim             ....   22

ORBITAL ENERGIES
----------------

  NO   OCC          E(Eh)            E(eV)
   0   2.0000     -11.529243      -313.7266
   1   2.0000      -1.413729       -38.4695
   2   2.0000      -0.056461        -1.5364
   3   2.0000      -0.056382        -1.5342
   4   2.0000      -0.056175        -1.5286
   5   0.0000      -0.782421       -21.2907
   6   0.0000      -0.779609       -21.2142
   7   0.0000      -0.779597       -21.2139
   8   0.0000      -0.512801       -13.9540
   9   0.0000       0.081639         2.2215

MULLIKEN ATOMIC CHARGES
-----------------------
   0 C :    1.982321
   1 H :   -0.994092
   2 H :   -0.994111
   3 H :   -0.994119
   4 H :    1.000000
Sum of atomic charges:    0.0000000

LOEWDIN ATOMIC CHARGES
----------------------
   0 C :    1.982450
   1 H :   -0.994135
   2 H :   -0.994154
   3 H :   -0.994162
   4 H :    1.000000

Dispersion correction           -0.000131660
FINAL SINGLE POINT ENERGY       -38.311643866015

DIPOLE MOMENT
-------------
                                X             Y             Z
Electronic contribution:     -6.24626      12.24360     -12.73693
Nuclear contribution   :     -0.00000      -0.00001       0.00000
                        -----------------------------------------
Total Dipole Moment    :     -6.24626      12.24359     -12.73693
                        -----------------------------------------
Magnitude (a.u.)       :     18.73901
Magnitude (Debye)      :     47.63078

                             ****ORCA TERMINATED NORMALLY****
TOTAL RUN TIME: 0 days 0 hours 0 minutes 10 seconds 186 msec
