                         Program Version 4.0.0.2 - RELEASE -
|  1> ! WB97X-D3 6-31G(d) VerySlowConv
|  2> ! KDIIS NOSOSCF
|  3> %base "Scan_5"
|  4>
|  5> %scf
|  6> maxiter 999
|  7> end
|  8>
|  9> * xyz 0 1
| 10> C         -4.472707999943    1.925920000040    0.000001999861
| 11> H         -3.478100216287    1.925919119199   -0.000002165358
| 12> H         -4.804239924388    2.186462790171    0.900806463101
| 13> H         -4.804245675346    1.015530698832   -0.224761728042
| 14> H         -4.804246184036    2.575767391759   -0.676034569562
| 15> **                         ****END OF INPUT****

CARTESIAN COORDINATES (ANGSTROEM)
---------------------------------
  C     -4.472708    1.925920    0.000002
  H     -3.478100    1.925919   -0.000002
  H     -4.804240    2.186463    0.900806
  H     -4.804246    1.015531   -0.224762
  H     -4.804246    2.575767   -0.676035

 Total Charge           Charge          ....    0
 Multiplicity           Mult            ....    1
 Number of Electrons    NEL             ....   10
 Basis Dimension        Dim             ....   22

ORBITAL ENERGIES
----------------

  NO   OCC          E(Eh)            E(eV)
   0   2.0000     -10.212065      -277.8844
   1   2.0000      -0.835499       -22.7351
   2   2.0000      -0.503040       -13.6884
   3   2.0000      -0.502983       -13.6869
   4   2.0000      -0.502927       -13.6854
   5   0.0000       0.235741         6.4148
   6   0.0000       0.301863         8.2141
   7   0.0000       0.301973         8.2171
   8   0.0000       0.302562         8.2331
   9   0.0000       0.607401        16.5282

MULLIKEN ATOMIC CHARGES
-----------------------
   0 C :   -0.725662
   1 H :    0.181866
   2 H :    0.181217
   3 H :    0.181190
   4 H :    0.181389
Sum of atomic charges:   -0.0000000

LOEWDIN ATOMIC CHARGES
----------------------
   0 C :   -0.578422
   1 H :    0.144703
   2 H :    0.144482
   3 H :    0.144507
   4 H :    0.144729

  Mayer bond orders larger than 0.1
B(  0-C ,  1-H ) :   0.9642 B(  0-C ,  2-H ) :   0.9645 B(  0-C ,  3-H ) :   0.9645
B(  0-C ,  4-H ) :   0.9644

Dispersion correction           -0.000011917
FINAL SINGLE POINT ENERGY       -40.471753912246

DIPOLE MOMENT
-------------
                                X             Y             Z
Electronic contribution:     -0.00051       0.00006      -0.00015
Nuclear contribution   :     -0.00000      -0.00000       0.00000
                        -----------------------------------------
Total Dipole Moment    :     -0.00051       0.00006      -0.00015
                        -----------------------------------------
Magnitude (a.u.)       :      0.00053
Magnitude (Debye)      :      0.00135

                             ****ORCA TERMINATED NORMALLY****
TOTAL RUN TIME: 0 days 0 hours 0 minutes 4 seconds 220 msec
