                         Program Version 4.0.0.2 - RELEASE -
|  1> ! WB97X-D3 6-31G(d) VerySlowConv
|  2> ! KDIIS NOSOSCF
|  3> %base "Scan_6"
|  4>
|  5> %scf
|  6> maxiter 999
|  7> end
|  8>
|  9> * xyz 0 1
| 10> C         -4.472707999975    1.925920000010    0.000001999970
| 11> H         -3.429171498640    1.925919075951   -0.000002370434
| 12> H         -4.820549300081    2.199279927535    0.945120621964
| 13> H         -4.820555333884    0.970745023663   -0.235818750870
| 14> H         -4.820555867420    2.607735972841   -0.709291500630
| 15> **                         ****END OF INPUT****

CARTESIAN COORDINATES (ANGSTROEM)
---------------------------------
  C     -4.472708    1.925920    0.000002
  H     -3.429171    1.925919   -0.000002
  H     -4.820549    2.199280    0.945121
  H     -4.820555    0.970745   -0.235819
  H     -4.820556    2.607736   -0.709292

 Total Charge           Charge          ....    0
 Multiplicity           Mult            ....    1
 Number of Electrons    NEL             ....   10
 Basis Dimension        Dim             ....   22

ORBITAL ENERGIES
----------------

  NO   OCC          E(Eh)            E(eV)
   0   2.0000     -10.234728      -278.5011
   1   2.0000      -0.819579       -22.3019
   2   2.0000      -0.494065       -13.4442
   3   2.0000      -0.493996       -13.4423
   4   2.0000      -0.493866       -13.4388
   5   0.0000       0.225323         6.1313
   6   0.0000       0.286069         7.7843
   7   0.0000       0.286148         7.7865
   8   0.0000       0.286629         7.7996
   9   0.0000       0.620453        16.8834

MULLIKEN ATOMIC CHARGES
-----------------------
   0 C :   -0.714095
   1 H :    0.178444
   2 H :    0.178629
   3 H :    0.178601
   4 H :    0.178421
Sum of atomic charges:    0.0000000

LOEWDIN ATOMIC CHARGES
----------------------
   0 C :   -0.562931
   1 H :    0.140649
   2 H :    0.140589
   3 H :    0.140671
   4 H :    0.141021

  Mayer bond orders larger than 0.1
B(  0-C ,  1-H ) :   0.9622 B(  0-C ,  2-H ) :   0.9621 B(  0-C ,  3-H ) :   0.9621
B(  0-C ,  4-H ) :   0.9623

Dispersion correction           -0.000017499
FINAL SINGLE POINT ENERGY       -40.494548841854

DIPOLE MOMENT
-------------
                                X             Y             Z
Electronic contribution:     -0.00059       0.00056      -0.00091
Nuclear contribution   :     -0.00000      -0.00000       0.00000
                        -----------------------------------------
Total Dipole Moment    :     -0.00059       0.00056      -0.00091
                        -----------------------------------------
Magnitude (a.u.)       :      0.00122
Magnitude (Debye)      :      0.00310

                             ****ORCA TERMINATED NORMALLY****
TOTAL RUN TIME: 0 days 0 hours 0 minutes 4 seconds 223 msec
