                         Program Version 4.0.0.2 - RELEASE -
|  1> ! WB97X-D3 6-31G(d) VerySlowConv
|  2> ! KDIIS NOSOSCF
|  3> %base "Scan_7"
|  4>
|  5> %scf
|  6> maxiter 999
|  7> end
|  8>
|  9> * xyz 0 1
| 10> C         -4.472707999975    1.925920000001    0.000002000006
| 11> H         -3.371578248780    1.925919024989   -0.000002611709
| 12> H         -4.839746818258    2.214366785157    0.997282144760
| 13> H         -4.839753185043    0.918028486158   -0.248833804415
| 14> H         -4.839753747944    2.645365703695   -0.748437728642
| 15> **                         ****END OF INPUT****

CARTESIAN COORDINATES (ANGSTROEM)
---------------------------------
  C     -4.472708    1.925920    0.000002
  H     -3.371578    1.925919   -0.000003
  H     -4.839747    2.214367    0.997282
  H     -4.839753    0.918028   -0.248834
  H     -4.839754    2.645366   -0.748438

 Total Charge           Charge          ....    0
 Multiplicity           Mult            ....    1
 Number of Electrons    NEL             ....   10
 Basis Dimension        Dim             ....   22

ORBITAL ENERGIES
----------------

  NO   OCC          E(Eh)            E(eV)
   0   2.0000     -10.261000      -279.2160
   1   2.0000      -0.801807       -21.8183
   2   2.0000      -0.483871       -13.1668
   3   2.0000      -0.483823       -13.1655
   4   2.0000      -0.483541       -13.1578
   5   0.0000       0.210704         5.7336
   6   0.0000       0.267209         7.2711
   7   0.0000       0.267417         7.2768
   8   0.0000       0.267673         7.2838
   9   0.0000       0.636635        17.3237

MULLIKEN ATOMIC CHARGES
-----------------------
   0 C :   -0.690925
   1 H :    0.172130
   2 H :    0.173195
   3 H :    0.173149
   4 H :    0.172451
Sum of atomic charges:   -0.0000000

LOEWDIN ATOMIC CHARGES
----------------------
   0 C :   -0.544916
   1 H :    0.135952
   2 H :    0.136184
   3 H :    0.136284
   4 H :    0.136496

  Mayer bond orders larger than 0.1
B(  0-C ,  1-H ) :   0.9599 B(  0-C ,  2-H ) :   0.9593 B(  0-C ,  3-H ) :   0.9594
B(  0-C ,  4-H ) :   0.9599

Dispersion correction           -0.000026896
FINAL SINGLE POINT ENERGY       -40.501088223589

DIPOLE MOMENT
-------------
                                X             Y             Z
Electronic contribution:     -0.00062       0.00079      -0.00133
Nuclear contribution   :     -0.00000      -0.00000      -0.00000
                        -----------------------------------------
Total Dipole Moment    :     -0.00062       0.00079      -0.00133
                        -----------------------------------------
Magnitude (a.u.)       :      0.00167
Magnitude (Debye)      :      0.00424

                             ****ORCA TERMINATED NORMALLY****
TOTAL RUN TIME: 0 days 0 hours 0 minutes 3 seconds 668 msec
