                         Program Version 4.0.0.2 - RELEASE -
|  1> ! WB97X-D3 6-31G(d) VerySlowConv
|  2> ! KDIIS NOSOSCF
|  3> %base "Scan_8"
|  4>
|  5> %scf
|  6> maxiter 999
|  7> end
|  8>
|  9> * xyz 0 1
| 10> C         -4.472708000138    1.925919999972    0.000002000030
| 11> H         -3.304520721739    1.925918965610   -0.000002892553
| 12> H         -4.862099057298    2.231932860384    1.058015350841
| 13> H         -4.862105811813    0.856649059989   -0.263987616778
| 14> H         -4.862106409012    2.689179114045   -0.794016841540
| 15> **                         ****END OF INPUT****

CARTESIAN COORDINATES (ANGSTROEM)
---------------------------------
  C     -4.472708    1.925920    0.000002
  H     -3.304521    1.925919   -0.000003
  H     -4.862099    2.231933    1.058015
  H     -4.862106    0.856649   -0.263988
  H     -4.862106    2.689179   -0.794017

 Total Charge           Charge          ....    0
 Multiplicity           Mult            ....    1
 Number of Electrons    NEL             ....   10
 Basis Dimension        Dim             ....   22

ORBITAL ENERGIES
----------------

  NO   OCC          E(Eh)            E(eV)
   0   2.0000     -10.290388      -280.0157
   1   2.0000      -0.782602       -21.2957
   2   2.0000      -0.472533       -12.8583
   3   2.0000      -0.472474       -12.8567
   4   2.0000      -0.472135       -12.8475
   5   0.0000       0.190505         5.1839
   6   0.0000       0.245183         6.6718
   7   0.0000       0.245400         6.6777
   8   0.0000       0.245475         6.6797
   9   0.0000       0.656025        17.8513

MULLIKEN ATOMIC CHARGES
-----------------------
   0 C :   -0.654196
   1 H :    0.162508
   2 H :    0.164309
   3 H :    0.164252
   4 H :    0.163126
Sum of atomic charges:   -0.0000000

LOEWDIN ATOMIC CHARGES
----------------------
   0 C :   -0.523612
   1 H :    0.130443
   2 H :    0.131044
   3 H :    0.131125
   4 H :    0.131000

  Mayer bond orders larger than 0.1
B(  0-C ,  1-H ) :   0.9574 B(  0-C ,  2-H ) :   0.9563 B(  0-C ,  3-H ) :   0.9564
B(  0-C ,  4-H ) :   0.9571

Dispersion correction           -0.000043199
FINAL SINGLE POINT ENERGY       -40.488397080287

DIPOLE MOMENT
-------------
                                X             Y             Z
Electronic contribution:     -0.00059       0.00068      -0.00126
Nuclear contribution   :      0.00000       0.00000      -0.00000
                        -----------------------------------------
Total Dipole Moment    :     -0.00059       0.00068      -0.00126
                        -----------------------------------------
Magnitude (a.u.)       :      0.00155
Magnitude (Debye)      :      0.00394

                             ****ORCA TERMINATED NORMALLY****
TOTAL RUN TIME: 0 days 0 hours 0 minutes 3 seconds 665 msec
