                         Program Version 4.0.0.2 - RELEASE -
|  1> ! WB97X-D3 6-31G(d) VerySlowConv
|  2> ! KDIIS NOSOSCF
|  3> %base "Scan_9"
|  4>
|  5> %scf
|  6> maxiter 999
|  7> end
|  8>
|  9> * xyz 0 1
| 10> C         -4.472708006326    1.925919998618    0.000002001605
| 11> H         -3.226358371391    1.925918897559   -0.000003221247
| 12> H         -4.888152858047    2.252407907310    1.128806072967
| 13> H         -4.888160064398    0.785105102782   -0.281650926311
| 14> H         -4.888160699838    2.740248093731   -0.847143927014
| 15> **                         ****END OF INPUT****

CARTESIAN COORDINATES (ANGSTROEM)
---------------------------------
  C     -4.472708    1.925920    0.000002
  H     -3.226358    1.925919   -0.000003
  H     -4.888153    2.252408    1.128806
  H     -4.888160    0.785105   -0.281651
  H     -4.888161    2.740248   -0.847144

 Total Charge           Charge          ....    0
 Multiplicity           Mult            ....    1
 Number of Electrons    NEL             ....   10
 Basis Dimension        Dim             ....   22

ORBITAL ENERGIES
----------------

  NO   OCC          E(Eh)            E(eV)
   0   2.0000     -10.322363      -280.8858
   1   2.0000      -0.762433       -20.7468
   2   2.0000      -0.460110       -12.5202
   3   2.0000      -0.460011       -12.5175
   4   2.0000      -0.459698       -12.5090
   5   0.0000       0.163175         4.4402
   6   0.0000       0.219578         5.9750
   7   0.0000       0.219694         5.9782
   8   0.0000       0.219803         5.9812
   9   0.0000       0.678456        18.4617

MULLIKEN ATOMIC CHARGES
-----------------------
   0 C :   -0.603159
   1 H :    0.149563
   2 H :    0.151619
   3 H :    0.151574
   4 H :    0.150402
Sum of atomic charges:    0.0000000

LOEWDIN ATOMIC CHARGES
----------------------
   0 C :   -0.497995
   1 H :    0.123974
   2 H :    0.124743
   3 H :    0.124796
   4 H :    0.124482

  Mayer bond orders larger than 0.1
B(  0-C ,  1-H ) :   0.9538 B(  0-C ,  2-H ) :   0.9526 B(  0-C ,  3-H ) :   0.9527
B(  0-C ,  4-H ) :   0.9535

Dispersion correction           -0.000073036
FINAL SINGLE POINT ENERGY       -40.454598625622

DIPOLE MOMENT
-------------
                                X             Y             Z
Electronic contribution:     -0.00031       0.00056      -0.00107
Nuclear contribution   :      0.00000       0.00000      -0.00000
                        -----------------------------------------
Total Dipole Moment    :     -0.00031       0.00056      -0.00107
                        -----------------------------------------
Magnitude (a.u.)       :      0.00125
Magnitude (Debye)      :      0.00317

                             ****ORCA TERMINATED NORMALLY****
TOTAL RUN TIME: 0 days 0 hours 0 minutes 3 seconds 485 msec
