                         Program Version 4.0.0.2 - RELEASE -
|  1> ! WB97X-D3 6-31G(d) VerySlowConv
|  2> ! KDIIS NOSOSCF
|  3> %base "Scan_1"
|  4>
|  5> %scf
|  6> maxiter 999
|  7> end
|  8>
|  9> * xyz 0 1
| 10> N         -2.836847887102    2.071605922679    0.000000000000
| 11> N         -1.843092112898    2.057834077321   -0.000000000000
| 12> **                         ****END OF INPUT****

CARTESIAN COORDINATES (ANGSTROEM)
---------------------------------
  N     -2.836848    2.071606    0.000000
  N     -1.843092    2.057834   -0.000000

 Total Charge           Charge          ....    0
 Multiplicity           Mult            ....    1
 Number of Electrons    NEL             ....   14
 Basis Dimension        Dim             ....   28

ORBITAL ENERGIES
----------------

  NO   OCC          E(Eh)            E(eV)
   0   2.0000     -14.516285      -395.0082
   1   2.0000     -14.511982      -394.8911
   2   2.0000      -1.302314       -35.4378
   3   2.0000      -0.625500       -17.0207
   4   2.0000      -0.600840       -16.3497
   5   2.0000      -0.600836       -16.3496
   6   2.0000      -0.530817       -14.4443
   7   0.0000       0.131037         3.5657
   8   0.0000       0.131037         3.5657
   9   0.0000       0.548910        14.9366
  10   0.0000       0.669058        18.2060
  11   0.0000       0.685757        18.6604

MULLIKEN ATOMIC CHARGES
-----------------------
   0 N :    0.000000
   1 N :   -0.000000
Sum of atomic charges:   -0.0000000

LOEWDIN ATOMIC CHARGES
----------------------
   0 N :   -0.000000
   1 N :    0.000000

  Mayer bond orders larger than 0.1
B(  0-N ,  1-N ) :   2.8287

Dispersion correction           -0.000000026
FINAL SINGLE POINT ENERGY      -109.444545632404

DIPOLE MOMENT
-------------
                                X             Y             Z
Electronic contribution:      0.00000      -0.00000       0.00000
Nuclear contribution   :      0.00000      -0.00000       0.00000
                        -----------------------------------------
Total Dipole Moment    :      0.00000      -0.00000       0.00000
                        -----------------------------------------
Magnitude (a.u.)       :      0.00000
Magnitude (Debye)      :      0.00000

                             ****ORCA TERMINATED NORMALLY****
TOTAL RUN TIME: 0 days 0 hours 0 minutes 2 seconds 551 msec
