                         Program Version 4.0.0.2 - RELEASE -
|  1> ! WB97X-D3 6-31G(d) VerySlowConv
|  2> ! KDIIS NOSOSCF
|  3> %base "Scan_10"
|  4>
|  5> %scf
|  6> maxiter 999
|  7> end
|  8>
|  9> * xyz 0 1
| 10> N         -2.941327287315    2.073053837931    0.000000000000
| 11> N         -1.738612712685    2.056386162069    0.000000000000
| 12> **                         ****END OF INPUT****

CARTESIAN COORDINATES (ANGSTROEM)
---------------------------------
  N     -2.941327    2.073054    0.000000
  N     -1.738613    2.056386    0.000000

 Total Charge           Charge          ....    0
 Multiplicity           Mult            ....    1
 Number of Electrons    NEL             ....   14
 Basis Dimension        Dim             ....   28

ORBITAL ENERGIES
----------------

  NO   OCC          E(Eh)            E(eV)
   0   2.0000     -14.567439      -396.4002
   1   2.0000     -14.566838      -396.3838
   2   2.0000      -1.182255       -32.1708
   3   2.0000      -0.684797       -18.6343
   4   2.0000      -0.531418       -14.4606
   5   2.0000      -0.531415       -14.4605
   6   2.0000      -0.521894       -14.2015
   7   0.0000       0.028715         0.7814
   8   0.0000       0.028716         0.7814
   9   0.0000       0.452016        12.3000
  10   0.0000       0.725576        19.7439
  11   0.0000       0.725576        19.7439

MULLIKEN ATOMIC CHARGES
-----------------------
   0 N :    0.000000
   1 N :   -0.000000
Sum of atomic charges:    0.0000000

LOEWDIN ATOMIC CHARGES
----------------------
   0 N :    0.000000
   1 N :   -0.000000

  Mayer bond orders larger than 0.1
B(  0-N ,  1-N ) :   2.8350

Dispersion correction           -0.000000119
FINAL SINGLE POINT ENERGY      -109.464891650839

DIPOLE MOMENT
-------------
                                X             Y             Z
Electronic contribution:      0.00000       0.00000       0.00000
Nuclear contribution   :      0.00000      -0.00000       0.00000
                        -----------------------------------------
Total Dipole Moment    :      0.00000       0.00000       0.00000
                        -----------------------------------------
Magnitude (a.u.)       :      0.00000
Magnitude (Debye)      :      0.00000

                             ****ORCA TERMINATED NORMALLY****
TOTAL RUN TIME: 0 days 0 hours 0 minutes 2 seconds 890 msec
