                         Program Version 4.0.0.2 - RELEASE -
|  1> ! WB97X-D3 6-31G(d) VerySlowConv
|  2> ! KDIIS NOSOSCF
|  3> %base "Scan_11"
|  4>
|  5> %scf
|  6> maxiter 999
|  7> end
|  8>
|  9> * xyz 0 1
| 10> N         -2.966440809669    2.073401870673    0.000000000000
| 11> N         -1.713499190331    2.056038129327    0.000000000000
| 12> **                         ****END OF INPUT****

CARTESIAN COORDINATES (ANGSTROEM)
---------------------------------
  N     -2.966441    2.073402    0.000000
  N     -1.713499    2.056038    0.000000

 Total Charge           Charge          ....    0
 Multiplicity           Mult            ....    1
 Number of Electrons    NEL             ....   14
 Basis Dimension        Dim             ....   28

ORBITAL ENERGIES
----------------

  NO   OCC          E(Eh)            E(eV)
   0   2.0000     -14.577861      -396.6838
   1   2.0000     -14.577467      -396.6731
   2   2.0000      -1.155079       -31.4313
   3   2.0000      -0.697771       -18.9873
   4   2.0000      -0.519039       -14.1238
   5   2.0000      -0.518046       -14.0968
   6   2.0000      -0.518045       -14.0967
   7   0.0000       0.009436         0.2568
   8   0.0000       0.009436         0.2568
   9   0.0000       0.409955        11.1554
  10   0.0000       0.731083        19.8938
  11   0.0000       0.731083        19.8938

MULLIKEN ATOMIC CHARGES
-----------------------
   0 N :    0.000000
   1 N :   -0.000000
Sum of atomic charges:    0.0000000

LOEWDIN ATOMIC CHARGES
----------------------
   0 N :    0.000000
   1 N :   -0.000000

  Mayer bond orders larger than 0.1
B(  0-N ,  1-N ) :   2.8453

Dispersion correction           -0.000000165
FINAL SINGLE POINT ENERGY      -109.440487106606

DIPOLE MOMENT
-------------
                                X             Y             Z
Electronic contribution:     -0.00000       0.00000       0.00000
Nuclear contribution   :      0.00000      -0.00000       0.00000
                        -----------------------------------------
Total Dipole Moment    :     -0.00000       0.00000       0.00000
                        -----------------------------------------
Magnitude (a.u.)       :      0.00000
Magnitude (Debye)      :      0.00000

                             ****ORCA TERMINATED NORMALLY****
TOTAL RUN TIME: 0 days 0 hours 0 minutes 2 seconds 645 msec
