                         Program Version 4.0.0.2 - RELEASE -
|  1> ! WB97X-D3 6-31G(d) VerySlowConv
|  2> ! KDIIS NOSOSCF
|  3> %base "Scan_12"
|  4>
|  5> %scf
|  6> maxiter 999
|  7> end
|  8>
|  9> * xyz 0 1
| 10> N         -2.999930742451    2.073865986895    0.000000000000
| 11> N         -1.680009257549    2.055574013105    0.000000000000
| 12> **                         ****END OF INPUT****

CARTESIAN COORDINATES (ANGSTROEM)
---------------------------------
  N     -2.999931    2.073866    0.000000
  N     -1.680009    2.055574    0.000000

 Total Charge           Charge          ....    0
 Multiplicity           Mult            ....    1
 Number of Electrons    NEL             ....   14
 Basis Dimension        Dim             ....   28

ORBITAL ENERGIES
----------------

  NO   OCC          E(Eh)            E(eV)
   0   2.0000     -14.589983      -397.0136
   1   2.0000     -14.589746      -397.0072
   2   2.0000      -1.121057       -30.5055
   3   2.0000      -0.714344       -19.4383
   4   2.0000      -0.514698       -14.0056
   5   2.0000      -0.501730       -13.6528
   6   2.0000      -0.501729       -13.6527
   7   0.0000      -0.013448        -0.3659
   8   0.0000      -0.013448        -0.3659
   9   0.0000       0.347986         9.4692
  10   0.0000       0.735871        20.0241
  11   0.0000       0.735871        20.0241

MULLIKEN ATOMIC CHARGES
-----------------------
   0 N :   -0.000000
   1 N :    0.000000
Sum of atomic charges:   -0.0000000

LOEWDIN ATOMIC CHARGES
----------------------
   0 N :   -0.000000
   1 N :    0.000000

  Mayer bond orders larger than 0.1
B(  0-N ,  1-N ) :   2.8618

Dispersion correction           -0.000000251
FINAL SINGLE POINT ENERGY      -109.401256886461

DIPOLE MOMENT
-------------
                                X             Y             Z
Electronic contribution:      0.00000       0.00000       0.00000
Nuclear contribution   :      0.00000      -0.00000       0.00000
                        -----------------------------------------
Total Dipole Moment    :      0.00000       0.00000       0.00000
                        -----------------------------------------
Magnitude (a.u.)       :      0.00000
Magnitude (Debye)      :      0.00000

                             ****ORCA TERMINATED NORMALLY****
TOTAL RUN TIME: 0 days 0 hours 0 minutes 3 seconds 323 msec
