                         Program Version 4.0.0.2 - RELEASE -
|  1> ! WB97X-D3 6-31G(d) VerySlowConv
|  2> ! KDIIS NOSOSCF
|  3> %base "Scan_13"
|  4>
|  5> %scf
|  6> maxiter 999
|  7> end
|  8>
|  9> * xyz 0 1
| 10> N         -3.048621518511    2.074540762182    0.000000000000
| 11> N         -1.631318481489    2.054899237818    0.000000000000
| 12> **                         ****END OF INPUT****

CARTESIAN COORDINATES (ANGSTROEM)
---------------------------------
  N     -3.048622    2.074541    0.000000
  N     -1.631318    2.054899    0.000000

 Total Charge           Charge          ....    0
 Multiplicity           Mult            ....    1
 Number of Electrons    NEL             ....   14
 Basis Dimension        Dim             ....   28

ORBITAL ENERGIES
----------------

  NO   OCC          E(Eh)            E(eV)
   0   2.0000     -14.604160      -397.3994
   1   2.0000     -14.604024      -397.3957
   2   2.0000      -1.076800       -29.3012
   3   2.0000      -0.736843       -20.0505
   4   2.0000      -0.507332       -13.8052
   5   2.0000      -0.480667       -13.0796
   6   2.0000      -0.480666       -13.0796
   7   0.0000      -0.041601        -1.1320
   8   0.0000      -0.041601        -1.1320
   9   0.0000       0.259386         7.0582
  10   0.0000       0.726461        19.7680
  11   0.0000       0.737969        20.0812

MULLIKEN ATOMIC CHARGES
-----------------------
   0 N :    0.000000
   1 N :   -0.000000
Sum of atomic charges:   -0.0000000

LOEWDIN ATOMIC CHARGES
----------------------
   0 N :    0.000000
   1 N :   -0.000000

  Mayer bond orders larger than 0.1
B(  0-N ,  1-N ) :   2.8882

Dispersion correction           -0.000000444
FINAL SINGLE POINT ENERGY      -109.337750853703

DIPOLE MOMENT
-------------
                                X             Y             Z
Electronic contribution:     -0.00000       0.00000       0.00000
Nuclear contribution   :      0.00000      -0.00000       0.00000
                        -----------------------------------------
Total Dipole Moment    :     -0.00000       0.00000       0.00000
                        -----------------------------------------
Magnitude (a.u.)       :      0.00000
Magnitude (Debye)      :      0.00000

                             ****ORCA TERMINATED NORMALLY****
TOTAL RUN TIME: 0 days 0 hours 0 minutes 2 seconds 555 msec
