                         Program Version 4.0.0.2 - RELEASE -
|  1> ! WB97X-D3 6-31G(d) VerySlowConv
|  2> ! KDIIS NOSOSCF
|  3> %base "Scan_14"
|  4>
|  5> %scf
|  6> maxiter 999
|  7> end
|  8>
|  9> * xyz 0 1
| 10> N         -3.124132620908    2.075587223750    0.000000000000
| 11> N         -1.555807379092    2.053852776250    0.000000000000
| 12> **                         ****END OF INPUT****

CARTESIAN COORDINATES (ANGSTROEM)
---------------------------------
  N     -3.124133    2.075587    0.000000
  N     -1.555807    2.053853    0.000000

 Total Charge           Charge          ....    0
 Multiplicity           Mult            ....    1
 Number of Electrons    NEL             ....   14
 Basis Dimension        Dim             ....   28

ORBITAL ENERGIES
----------------

  NO   OCC          E(Eh)            E(eV)
   0   2.0000     -14.619476      -397.8162
   1   2.0000     -14.619377      -397.8135
   2   2.0000      -1.020586       -27.7716
   3   2.0000      -0.767311       -20.8796
   4   2.0000      -0.493801       -13.4370
   5   2.0000      -0.453243       -12.3334
   6   2.0000      -0.453242       -12.3333
   7   0.0000      -0.075453        -2.0532
   8   0.0000      -0.075453        -2.0532
   9   0.0000       0.145961         3.9718
  10   0.0000       0.719903        19.5896
  11   0.0000       0.732434        19.9305

MULLIKEN ATOMIC CHARGES
-----------------------
   0 N :    0.000000
   1 N :   -0.000000
Sum of atomic charges:   -0.0000000

LOEWDIN ATOMIC CHARGES
----------------------
   0 N :    0.000000
   1 N :   -0.000000

  Mayer bond orders larger than 0.1
B(  0-N ,  1-N ) :   2.9257

Dispersion correction           -0.000000998
FINAL SINGLE POINT ENERGY      -109.237928061408

DIPOLE MOMENT
-------------
                                X             Y             Z
Electronic contribution:     -0.00000       0.00000      -0.00000
Nuclear contribution   :      0.00000      -0.00000       0.00000
                        -----------------------------------------
Total Dipole Moment    :     -0.00000       0.00000      -0.00000
                        -----------------------------------------
Magnitude (a.u.)       :      0.00000
Magnitude (Debye)      :      0.00000

                             ****ORCA TERMINATED NORMALLY****
TOTAL RUN TIME: 0 days 0 hours 0 minutes 2 seconds 749 msec
