                         Program Version 4.0.0.2 - RELEASE -
|  1> ! WB97X-D3 6-31G(d) VerySlowConv
|  2> ! KDIIS NOSOSCF
|  3> %base "Scan_15"
|  4>
|  5> %scf
|  6> maxiter 999
|  7> end
|  8>
|  9> * xyz 0 1
| 10> N         -3.213177573681    2.076821242562   -0.000000000000
| 11> N         -1.466762426319    2.052618757438    0.000000000000
| 12> **                         ****END OF INPUT****

CARTESIAN COORDINATES (ANGSTROEM)
---------------------------------
  N     -3.213178    2.076821   -0.000000
  N     -1.466762    2.052619    0.000000

 Total Charge           Charge          ....    0
 Multiplicity           Mult            ....    1
 Number of Electrons    NEL             ....   14
 Basis Dimension        Dim             ....   28

ORBITAL ENERGIES
----------------

  NO   OCC          E(Eh)            E(eV)
   0   2.0000     -14.629653      -398.0931
   1   2.0000     -14.629562      -398.0906
   2   2.0000      -0.971509       -26.4361
   3   2.0000      -0.795700       -21.6521
   4   2.0000      -0.474992       -12.9252
   5   2.0000      -0.427737       -11.6393
   6   2.0000      -0.427736       -11.6393
   7   0.0000      -0.103958        -2.8288
   8   0.0000      -0.103957        -2.8288
   9   0.0000       0.050384         1.3710
  10   0.0000       0.719777        19.5861
  11   0.0000       0.719778        19.5862

MULLIKEN ATOMIC CHARGES
-----------------------
   0 N :    0.000000
   1 N :   -0.000000
Sum of atomic charges:    0.0000000

LOEWDIN ATOMIC CHARGES
----------------------
   0 N :    0.000000
   1 N :   -0.000000

  Mayer bond orders larger than 0.1
B(  0-N ,  1-N ) :   2.9579

Dispersion correction           -0.000002383
FINAL SINGLE POINT ENERGY      -109.131156866717

DIPOLE MOMENT
-------------
                                X             Y             Z
Electronic contribution:     -0.00000       0.00000       0.00000
Nuclear contribution   :      0.00000      -0.00000       0.00000
                        -----------------------------------------
Total Dipole Moment    :     -0.00000       0.00000       0.00000
                        -----------------------------------------
Magnitude (a.u.)       :      0.00000
Magnitude (Debye)      :      0.00000

                             ****ORCA TERMINATED NORMALLY****
TOTAL RUN TIME: 0 days 0 hours 0 minutes 9 seconds 91 msec
