                         Program Version 4.0.0.2 - RELEASE -
|  1> ! WB97X-D3 6-31G(d) VerySlowConv
|  2> ! KDIIS NOSOSCF
|  3> %base "Scan_16"
|  4>
|  5> %scf
|  6> maxiter 999
|  7> end
|  8>
|  9> * xyz 0 1
| 10> N         -3.289617263154    2.077880572842   -0.000000000000
| 11> N         -1.390322736846    2.051559427158    0.000000000000
| 12> **                         ****END OF INPUT****

CARTESIAN COORDINATES (ANGSTROEM)
---------------------------------
  N     -3.289617    2.077881   -0.000000
  N     -1.390323    2.051559    0.000000

 Total Charge           Charge          ....    0
 Multiplicity           Mult            ....    1
 Number of Electrons    NEL             ....   14
 Basis Dimension        Dim             ....   28

ORBITAL ENERGIES
----------------

  NO   OCC          E(Eh)            E(eV)
   0   2.0000     -14.633625      -398.2012
   1   2.0000     -14.633545      -398.1990
   2   2.0000      -0.941597       -25.6222
   3   2.0000      -0.813905       -22.1475
   4   2.0000      -0.457494       -12.4491
   5   2.0000      -0.410517       -11.1707
   6   2.0000      -0.410517       -11.1707
   7   0.0000      -0.121599        -3.3089
   8   0.0000      -0.121598        -3.3089
   9   0.0000      -0.006598        -0.1795
  10   0.0000       0.709673        19.3112
  11   0.0000       0.709674        19.3112

MULLIKEN ATOMIC CHARGES
-----------------------
   0 N :    0.000000
   1 N :   -0.000000
Sum of atomic charges:   -0.0000000

LOEWDIN ATOMIC CHARGES
----------------------
   0 N :    0.000000
   1 N :   -0.000000

  Mayer bond orders larger than 0.1
B(  0-N ,  1-N ) :   2.9754

Dispersion correction           -0.000004944
FINAL SINGLE POINT ENERGY      -109.052621658905

DIPOLE MOMENT
-------------
                                X             Y             Z
Electronic contribution:     -0.00000       0.00000      -0.00000
Nuclear contribution   :      0.00000      -0.00000       0.00000
                        -----------------------------------------
Total Dipole Moment    :     -0.00000       0.00000      -0.00000
                        -----------------------------------------
Magnitude (a.u.)       :      0.00000
Magnitude (Debye)      :      0.00000

                             ****ORCA TERMINATED NORMALLY****
TOTAL RUN TIME: 0 days 0 hours 0 minutes 2 seconds 572 msec
