                         Program Version 4.0.0.2 - RELEASE -
|  1> ! WB97X-D3 6-31G(d) VerySlowConv
|  2> ! KDIIS NOSOSCF
|  3> %base "Scan_17"
|  4>
|  5> %scf
|  6> maxiter 999
|  7> end
|  8>
|  9> * xyz 0 1
| 10> N         -3.356217375971    2.078803542528   -0.000000000000
| 11> N         -1.323722624030    2.050636457472    0.000000000000
| 12> **                         ****END OF INPUT****

CARTESIAN COORDINATES (ANGSTROEM)
---------------------------------
  N     -3.356217    2.078804   -0.000000
  N     -1.323723    2.050636    0.000000

 Total Charge           Charge          ....    0
 Multiplicity           Mult            ....    1
 Number of Electrons    NEL             ....   14
 Basis Dimension        Dim             ....   28

ORBITAL ENERGIES
----------------

  NO   OCC          E(Eh)            E(eV)
   0   2.0000     -14.634650      -398.2291
   1   2.0000     -14.634585      -398.2273
   2   2.0000      -0.922657       -25.1068
   3   2.0000      -0.825770       -22.4703
   4   2.0000      -0.442528       -12.0418
   5   2.0000      -0.398241       -10.8367
   6   2.0000      -0.398239       -10.8366
   7   0.0000      -0.133436        -3.6310
   8   0.0000      -0.133436        -3.6310
   9   0.0000      -0.042755        -1.1634
  10   0.0000       0.703594        19.1458
  11   0.0000       0.703596        19.1458

MULLIKEN ATOMIC CHARGES
-----------------------
   0 N :    0.000001
   1 N :   -0.000001
Sum of atomic charges:   -0.0000000

LOEWDIN ATOMIC CHARGES
----------------------
   0 N :    0.000001
   1 N :   -0.000001

  Mayer bond orders larger than 0.1
B(  0-N ,  1-N ) :   2.9851

Dispersion correction           -0.000008908
FINAL SINGLE POINT ENERGY      -108.993882697862

DIPOLE MOMENT
-------------
                                X             Y             Z
Electronic contribution:     -0.00000       0.00000       0.00000
Nuclear contribution   :      0.00000      -0.00000       0.00000
                        -----------------------------------------
Total Dipole Moment    :     -0.00000       0.00000       0.00000
                        -----------------------------------------
Magnitude (a.u.)       :      0.00000
Magnitude (Debye)      :      0.00001

                             ****ORCA TERMINATED NORMALLY****
TOTAL RUN TIME: 0 days 0 hours 0 minutes 2 seconds 678 msec
