                         Program Version 4.0.0.2 - RELEASE -
|  1> ! WB97X-D3 6-31G(d) VerySlowConv
|  2> ! KDIIS NOSOSCF
|  3> %base "Scan_18"
|  4>
|  5> %scf
|  6> maxiter 999
|  7> end
|  8>
|  9> * xyz 0 1
| 10> N         -3.418652813888    2.079668796565   -0.000000000000
| 11> N         -1.261287186112    2.049771203435   -0.000000000000
| 12> **                         ****END OF INPUT****

CARTESIAN COORDINATES (ANGSTROEM)
---------------------------------
  N     -3.418653    2.079669   -0.000000
  N     -1.261287    2.049771   -0.000000

 Total Charge           Charge          ....    0
 Multiplicity           Mult            ....    1
 Number of Electrons    NEL             ....   14
 Basis Dimension        Dim             ....   28

ORBITAL ENERGIES
----------------

  NO   OCC          E(Eh)            E(eV)
   0   2.0000     -14.634295      -398.2194
   1   2.0000     -14.634243      -398.2180
   2   2.0000      -0.909448       -24.7473
   3   2.0000      -0.834198       -22.6997
   4   2.0000      -0.429414       -11.6850
   5   2.0000      -0.388610       -10.5746
   6   2.0000      -0.388609       -10.5746
   7   0.0000      -0.142421        -3.8755
   8   0.0000      -0.142420        -3.8755
   9   0.0000      -0.068583        -1.8662
  10   0.0000       0.700547        19.0628
  11   0.0000       0.700547        19.0629

MULLIKEN ATOMIC CHARGES
-----------------------
   0 N :    0.000001
   1 N :   -0.000001
Sum of atomic charges:    0.0000000

LOEWDIN ATOMIC CHARGES
----------------------
   0 N :    0.000001
   1 N :   -0.000001

  Mayer bond orders larger than 0.1
B(  0-N ,  1-N ) :   2.9911

Dispersion correction           -0.000014479
FINAL SINGLE POINT ENERGY      -108.946191477151

DIPOLE MOMENT
-------------
                                X             Y             Z
Electronic contribution:     -0.00000       0.00000      -0.00000
Nuclear contribution   :      0.00000      -0.00000       0.00000
                        -----------------------------------------
Total Dipole Moment    :     -0.00000       0.00000      -0.00000
                        -----------------------------------------
Magnitude (a.u.)       :      0.00000
Magnitude (Debye)      :      0.00001

                             ****ORCA TERMINATED NORMALLY****
TOTAL RUN TIME: 0 days 0 hours 0 minutes 9 seconds 727 msec
