                         Program Version 4.0.0.2 - RELEASE -
|  1> ! WB97X-D3 6-31G(d) VerySlowConv
|  2> ! KDIIS NOSOSCF
|  3> %base "Scan_19"
|  4>
|  5> %scf
|  6> maxiter 999
|  7> end
|  8>
|  9> * xyz 0 1
| 10> N         -3.479677484001    2.080514499646   -0.000000000000
| 11> N         -1.200262516000    2.048925500354   -0.000000000000
| 12> **                         ****END OF INPUT****

CARTESIAN COORDINATES (ANGSTROEM)
---------------------------------
  N     -3.479677    2.080514   -0.000000
  N     -1.200263    2.048926   -0.000000

 Total Charge           Charge          ....    0
 Multiplicity           Mult            ....    1
 Number of Electrons    NEL             ....   14
 Basis Dimension        Dim             ....   28

ORBITAL ENERGIES
----------------

  NO   OCC          E(Eh)            E(eV)
   0   2.0000     -14.632780      -398.1782
   1   2.0000     -14.632741      -398.1771
   2   2.0000      -0.899535       -24.4776
   3   2.0000      -0.840375       -22.8678
   4   2.0000      -0.417568       -11.3626
   5   2.0000      -0.380396       -10.3511
   6   2.0000      -0.380395       -10.3511
   7   0.0000      -0.149619        -4.0713
   8   0.0000      -0.149619        -4.0713
   9   0.0000      -0.088451        -2.4069
  10   0.0000       0.700121        19.0513
  11   0.0000       0.700122        19.0513

MULLIKEN ATOMIC CHARGES
-----------------------
   0 N :    0.000001
   1 N :   -0.000001
Sum of atomic charges:   -0.0000000

LOEWDIN ATOMIC CHARGES
----------------------
   0 N :    0.000001
   1 N :   -0.000001

  Mayer bond orders larger than 0.1
B(  0-N ,  1-N ) :   2.9947

Dispersion correction           -0.000022490
FINAL SINGLE POINT ENERGY      -108.905408808064

DIPOLE MOMENT
-------------
                                X             Y             Z
Electronic contribution:     -0.00000       0.00000      -0.00000
Nuclear contribution   :      0.00000      -0.00000       0.00000
                        -----------------------------------------
Total Dipole Moment    :     -0.00000       0.00000      -0.00000
                        -----------------------------------------
Magnitude (a.u.)       :      0.00000
Magnitude (Debye)      :      0.00001

                             ****ORCA TERMINATED NORMALLY****
TOTAL RUN TIME: 0 days 0 hours 0 minutes 2 seconds 690 msec
