                         Program Version 4.0.0.2 - RELEASE -
|  1> ! WB97X-D3 6-31G(d) VerySlowConv
|  2> ! KDIIS NOSOSCF
|  3> %base "Scan_2"
|  4>
|  5> %scf
|  6> maxiter 999
|  7> end
|  8>
|  9> * xyz 0 1
| 10> N         -2.843805601132    2.071702345325    0.000000000000
| 11> N         -1.836134398868    2.057737654675   -0.000000000000
| 12> **                         ****END OF INPUT****

CARTESIAN COORDINATES (ANGSTROEM)
---------------------------------
  N     -2.843806    2.071702    0.000000
  N     -1.836134    2.057738   -0.000000

 Total Charge           Charge          ....    0
 Multiplicity           Mult            ....    1
 Number of Electrons    NEL             ....   14
 Basis Dimension        Dim             ....   28

ORBITAL ENERGIES
----------------

  NO   OCC          E(Eh)            E(eV)
   0   2.0000     -14.519721      -395.1017
   1   2.0000     -14.515976      -394.9998
   2   2.0000      -1.294423       -35.2230
   3   2.0000      -0.629748       -17.1363
   4   2.0000      -0.595361       -16.2006
   5   2.0000      -0.595358       -16.2005
   6   2.0000      -0.530329       -14.4310
   7   0.0000       0.123052         3.3484
   8   0.0000       0.123053         3.3484
   9   0.0000       0.545654        14.8480
  10   0.0000       0.672462        18.2986
  11   0.0000       0.689169        18.7533

MULLIKEN ATOMIC CHARGES
-----------------------
   0 N :   -0.000000
   1 N :    0.000000
Sum of atomic charges:    0.0000000

LOEWDIN ATOMIC CHARGES
----------------------
   0 N :   -0.000000
   1 N :    0.000000

  Mayer bond orders larger than 0.1
B(  0-N ,  1-N ) :   2.8272

Dispersion correction           -0.000000029
FINAL SINGLE POINT ENERGY      -109.456529290623

DIPOLE MOMENT
-------------
                                X             Y             Z
Electronic contribution:      0.00000      -0.00000       0.00000
Nuclear contribution   :      0.00000      -0.00000       0.00000
                        -----------------------------------------
Total Dipole Moment    :      0.00000      -0.00000       0.00000
                        -----------------------------------------
Magnitude (a.u.)       :      0.00000
Magnitude (Debye)      :      0.00000

                             ****ORCA TERMINATED NORMALLY****
TOTAL RUN TIME: 0 days 0 hours 0 minutes 2 seconds 947 msec
