                         Program Version 4.0.0.2 - RELEASE -
|  1> ! WB97X-D3 6-31G(d) VerySlowConv
|  2> ! KDIIS NOSOSCF
|  3> %base "Scan_20"
|  4>
|  5> %scf
|  6> maxiter 999
|  7> end
|  8>
|  9> * xyz 0 1
| 10> N         -3.539417655696    2.081342401660   -0.000000000000
| 11> N         -1.140522344304    2.048097598340   -0.000000000000
| 12> **                         ****END OF INPUT****

CARTESIAN COORDINATES (ANGSTROEM)
---------------------------------
  N     -3.539418    2.081342   -0.000000
  N     -1.140522    2.048098   -0.000000

 Total Charge           Charge          ....    0
 Multiplicity           Mult            ....    1
 Number of Electrons    NEL             ....   14
 Basis Dimension        Dim             ....   28

ORBITAL ENERGIES
----------------

  NO   OCC          E(Eh)            E(eV)
   0   2.0000     -14.630899      -398.1270
   1   2.0000     -14.630866      -398.1261
   2   2.0000      -0.892100       -24.2753
   3   2.0000      -0.844956       -22.9924
   4   2.0000      -0.407127       -11.0785
   5   2.0000      -0.373419       -10.1613
   6   2.0000      -0.373419       -10.1612
   7   0.0000      -0.155600        -4.2341
   8   0.0000      -0.155599        -4.2341
   9   0.0000      -0.104068        -2.8318
  10   0.0000       0.701583        19.0910
  11   0.0000       0.701585        19.0911

MULLIKEN ATOMIC CHARGES
-----------------------
   0 N :    0.000006
   1 N :   -0.000006
Sum of atomic charges:    0.0000000

LOEWDIN ATOMIC CHARGES
----------------------
   0 N :    0.000006
   1 N :   -0.000006

  Mayer bond orders larger than 0.1
B(  0-N ,  1-N ) :   2.9971

Dispersion correction           -0.000033714
FINAL SINGLE POINT ENERGY      -108.870401975414

DIPOLE MOMENT
-------------
                                X             Y             Z
Electronic contribution:     -0.00003       0.00000       0.00000
Nuclear contribution   :      0.00000      -0.00000       0.00000
                        -----------------------------------------
Total Dipole Moment    :     -0.00003       0.00000       0.00000
                        -----------------------------------------
Magnitude (a.u.)       :      0.00003
Magnitude (Debye)      :      0.00007

                             ****ORCA TERMINATED NORMALLY****
TOTAL RUN TIME: 0 days 0 hours 0 minutes 2 seconds 283 msec
