                         Program Version 4.0.0.2 - RELEASE -
|  1> ! WB97X-D3 6-31G(d) VerySlowConv
|  2> ! KDIIS NOSOSCF
|  3> %base "Scan_21"
|  4>
|  5> %scf
|  6> maxiter 999
|  7> end
|  8>
|  9> * xyz 0 1
| 10> N         -3.597607222433    2.082148814800   -0.000000000000
| 11> N         -1.082332777567    2.047291185200    0.000000000000
| 12> **                         ****END OF INPUT****

CARTESIAN COORDINATES (ANGSTROEM)
---------------------------------
  N     -3.597607    2.082149   -0.000000
  N     -1.082333    2.047291    0.000000

 Total Charge           Charge          ....    0
 Multiplicity           Mult            ....    1
 Number of Electrons    NEL             ....   14
 Basis Dimension        Dim             ....   28

ORBITAL ENERGIES
----------------

  NO   OCC          E(Eh)            E(eV)
   0   2.0000     -14.628972      -398.0746
   1   2.0000     -14.628942      -398.0737
   2   2.0000      -0.886490       -24.1226
   3   2.0000      -0.848349       -23.0847
   4   2.0000      -0.397995       -10.8300
   5   2.0000      -0.367454        -9.9989
   6   2.0000      -0.367454        -9.9989
   7   0.0000      -0.160653        -4.3716
   8   0.0000      -0.160653        -4.3716
   9   0.0000      -0.116539        -3.1712
  10   0.0000       0.704350        19.1663
  11   0.0000       0.704354        19.1664

MULLIKEN ATOMIC CHARGES
-----------------------
   0 N :    0.000010
   1 N :   -0.000010
Sum of atomic charges:   -0.0000000

LOEWDIN ATOMIC CHARGES
----------------------
   0 N :    0.000010
   1 N :   -0.000010

  Mayer bond orders larger than 0.1
B(  0-N ,  1-N ) :   2.9986

Dispersion correction           -0.000048802
FINAL SINGLE POINT ENERGY      -108.840335199470

DIPOLE MOMENT
-------------
                                X             Y             Z
Electronic contribution:     -0.00005       0.00000      -0.00000
Nuclear contribution   :      0.00000      -0.00000       0.00000
                        -----------------------------------------
Total Dipole Moment    :     -0.00005       0.00000      -0.00000
                        -----------------------------------------
Magnitude (a.u.)       :      0.00005
Magnitude (Debye)      :      0.00012

                             ****ORCA TERMINATED NORMALLY****
TOTAL RUN TIME: 0 days 0 hours 0 minutes 3 seconds 55 msec
