                         Program Version 4.0.0.2 - RELEASE -
|  1> ! WB97X-D3 6-31G(d) VerySlowConv
|  2> ! KDIIS NOSOSCF
|  3> %base "Scan_23"
|  4>
|  5> %scf
|  6> maxiter 999
|  7> end
|  8>
|  9> * xyz 0 1
| 10> N         -3.708861365039    2.083690617009    0.000000000000
| 11> N         -0.971078634961    2.045749382991    0.000000000000
| 12> **                         ****END OF INPUT****

CARTESIAN COORDINATES (ANGSTROEM)
---------------------------------
  N     -3.708861    2.083691    0.000000
  N     -0.971079    2.045749    0.000000

 Total Charge           Charge          ....    0
 Multiplicity           Mult            ....    1
 Number of Electrons    NEL             ....   14
 Basis Dimension        Dim             ....   28

ORBITAL ENERGIES
----------------

  NO   OCC          E(Eh)            E(eV)
   0   2.0000     -14.624773      -397.9603
   1   2.0000     -14.624723      -397.9589
   2   2.0000      -0.878683       -23.9102
   3   2.0000      -0.852622       -23.2010
   4   2.0000      -0.382610       -10.4113
   5   2.0000      -0.357541        -9.7292
   6   2.0000      -0.357541        -9.7292
   7   0.0000      -0.168482        -4.5846
   8   0.0000      -0.168481        -4.5846
   9   0.0000      -0.135336        -3.6827
  10   0.0000       0.671881        18.2828
  11   0.0000       0.712209        19.3802

MULLIKEN ATOMIC CHARGES
-----------------------
   0 N :    0.000028
   1 N :   -0.000028
Sum of atomic charges:   -0.0000000

LOEWDIN ATOMIC CHARGES
----------------------
   0 N :    0.000028
   1 N :   -0.000028

  Mayer bond orders larger than 0.1
B(  0-N ,  1-N ) :   3.0002

Dispersion correction           -0.000091546
FINAL SINGLE POINT ENERGY      -108.791766652055

DIPOLE MOMENT
-------------
                                X             Y             Z
Electronic contribution:     -0.00015       0.00000      -0.00000
Nuclear contribution   :      0.00000      -0.00000       0.00000
                        -----------------------------------------
Total Dipole Moment    :     -0.00015       0.00000      -0.00000
                        -----------------------------------------
Magnitude (a.u.)       :      0.00015
Magnitude (Debye)      :      0.00037

                             ****ORCA TERMINATED NORMALLY****
TOTAL RUN TIME: 0 days 0 hours 0 minutes 3 seconds 298 msec
