                         Program Version 4.0.0.2 - RELEASE -
|  1> ! WB97X-D3 6-31G(d) VerySlowConv
|  2> ! KDIIS NOSOSCF
|  3> %base "Scan_24"
|  4>
|  5> %scf
|  6> maxiter 999
|  7> end
|  8>
|  9> * xyz 0 1
| 10> N         -3.762389794132    2.084432434332   -0.000000000000
| 11> N         -0.917550205869    2.045007565668   -0.000000000000
| 12> **                         ****END OF INPUT****

CARTESIAN COORDINATES (ANGSTROEM)
---------------------------------
  N     -3.762390    2.084432   -0.000000
  N     -0.917550    2.045008   -0.000000

 Total Charge           Charge          ....    0
 Multiplicity           Mult            ....    1
 Number of Electrons    NEL             ....   14
 Basis Dimension        Dim             ....   28

ORBITAL ENERGIES
----------------

  NO   OCC          E(Eh)            E(eV)
   0   2.0000     -14.622681      -397.9034
   1   2.0000     -14.622652      -397.9026
   2   2.0000      -0.875904       -23.8346
   3   2.0000      -0.853909       -23.2360
   4   2.0000      -0.376053       -10.2329
   5   2.0000      -0.353323        -9.6144
   6   2.0000      -0.353323        -9.6144
   7   0.0000      -0.171585        -4.6691
   8   0.0000      -0.171584        -4.6690
   9   0.0000      -0.142551        -3.8790
  10   0.0000       0.659385        17.9428
  11   0.0000       0.716623        19.5003

MULLIKEN ATOMIC CHARGES
-----------------------
   0 N :    0.000009
   1 N :   -0.000009
Sum of atomic charges:   -0.0000000

LOEWDIN ATOMIC CHARGES
----------------------
   0 N :    0.000009
   1 N :   -0.000009

  Mayer bond orders larger than 0.1
B(  0-N ,  1-N ) :   3.0005

Dispersion correction           -0.000118039
FINAL SINGLE POINT ENERGY      -108.771918145211

DIPOLE MOMENT
-------------
                                X             Y             Z
Electronic contribution:     -0.00005       0.00000       0.00000
Nuclear contribution   :     -0.00000      -0.00000       0.00000
                        -----------------------------------------
Total Dipole Moment    :     -0.00005       0.00000       0.00000
                        -----------------------------------------
Magnitude (a.u.)       :      0.00005
Magnitude (Debye)      :      0.00013

                             ****ORCA TERMINATED NORMALLY****
TOTAL RUN TIME: 0 days 0 hours 0 minutes 2 seconds 975 msec
