                         Program Version 4.0.0.2 - RELEASE -
|  1> ! WB97X-D3 6-31G(d) VerySlowConv
|  2> ! KDIIS NOSOSCF
|  3> %base "Scan_25"
|  4>
|  5> %scf
|  6> maxiter 999
|  7> end
|  8>
|  9> * xyz 0 1
| 10> N         -3.814988615313    2.085161368795   -0.000000000000
| 11> N         -0.864951384688    2.044278631205   -0.000000000000
| 12> **                         ****END OF INPUT****

CARTESIAN COORDINATES (ANGSTROEM)
---------------------------------
  N     -3.814989    2.085161   -0.000000
  N     -0.864951    2.044279   -0.000000

 Total Charge           Charge          ....    0
 Multiplicity           Mult            ....    1
 Number of Electrons    NEL             ....   14
 Basis Dimension        Dim             ....   28

ORBITAL ENERGIES
----------------

  NO   OCC          E(Eh)            E(eV)
   0   2.0000     -14.620589      -397.8465
   1   2.0000     -14.620561      -397.8457
   2   2.0000      -0.873552       -23.7706
   3   2.0000      -0.854772       -23.2595
   4   2.0000      -0.370004       -10.0683
   5   2.0000      -0.349431        -9.5085
   6   2.0000      -0.349430        -9.5085
   7   0.0000      -0.174277        -4.7423
   8   0.0000      -0.174277        -4.7423
   9   0.0000      -0.148749        -4.0477
  10   0.0000       0.652382        17.7522
  11   0.0000       0.721133        19.6230

MULLIKEN ATOMIC CHARGES
-----------------------
   0 N :    0.000004
   1 N :   -0.000004
Sum of atomic charges:   -0.0000000

LOEWDIN ATOMIC CHARGES
----------------------
   0 N :    0.000004
   1 N :   -0.000004

  Mayer bond orders larger than 0.1
B(  0-N ,  1-N ) :   3.0007

Dispersion correction           -0.000145254
FINAL SINGLE POINT ENERGY      -108.754261394010

DIPOLE MOMENT
-------------
                                X             Y             Z
Electronic contribution:     -0.00002       0.00000       0.00000
Nuclear contribution   :     -0.00000      -0.00000       0.00000
                        -----------------------------------------
Total Dipole Moment    :     -0.00002       0.00000       0.00000
                        -----------------------------------------
Magnitude (a.u.)       :      0.00002
Magnitude (Debye)      :      0.00006

                             ****ORCA TERMINATED NORMALLY****
TOTAL RUN TIME: 0 days 0 hours 0 minutes 3 seconds 233 msec
