                         Program Version 4.0.0.2 - RELEASE -
|  1> ! WB97X-D3 6-31G(d) VerySlowConv
|  2> ! KDIIS NOSOSCF
|  3> %base "Scan_26"
|  4>
|  5> %scf
|  6> maxiter 999
|  7> end
|  8>
|  9> * xyz 0 1
| 10> N         -3.866984743001    2.085881950902   -0.000000000000
| 11> N         -0.812955257000    2.043558049098   -0.000000000000
| 12> **                         ****END OF INPUT****

CARTESIAN COORDINATES (ANGSTROEM)
---------------------------------
  N     -3.866985    2.085882   -0.000000
  N     -0.812955    2.043558   -0.000000

 Total Charge           Charge          ....    0
 Multiplicity           Mult            ....    1
 Number of Electrons    NEL             ....   14
 Basis Dimension        Dim             ....   28

ORBITAL ENERGIES
----------------

  NO   OCC          E(Eh)            E(eV)
   0   2.0000     -14.618561      -397.7913
   1   2.0000     -14.618532      -397.7905
   2   2.0000      -0.871531       -23.7156
   3   2.0000      -0.855329       -23.2747
   4   2.0000      -0.364418        -9.9163
   5   2.0000      -0.345815        -9.4101
   6   2.0000      -0.345814        -9.4101
   7   0.0000      -0.176654        -4.8070
   8   0.0000      -0.176654        -4.8070
   9   0.0000      -0.154191        -4.1957
  10   0.0000       0.649995        17.6872
  11   0.0000       0.725563        19.7436

MULLIKEN ATOMIC CHARGES
-----------------------
   0 N :    0.000002
   1 N :   -0.000002
Sum of atomic charges:   -0.0000000

LOEWDIN ATOMIC CHARGES
----------------------
   0 N :    0.000002
   1 N :   -0.000002

  Mayer bond orders larger than 0.1
B(  0-N ,  1-N ) :   3.0007

Dispersion correction           -0.000169598
FINAL SINGLE POINT ENERGY      -108.738387585937

DIPOLE MOMENT
-------------
                                X             Y             Z
Electronic contribution:     -0.00001       0.00000      -0.00000
Nuclear contribution   :      0.00000      -0.00000       0.00000
                        -----------------------------------------
Total Dipole Moment    :     -0.00001       0.00000      -0.00000
                        -----------------------------------------
Magnitude (a.u.)       :      0.00001
Magnitude (Debye)      :      0.00003

                             ****ORCA TERMINATED NORMALLY****
TOTAL RUN TIME: 0 days 0 hours 0 minutes 11 seconds 703 msec
