                         Program Version 4.0.0.2 - RELEASE -
|  1> ! WB97X-D3 6-31G(d) VerySlowConv
|  2> ! KDIIS NOSOSCF
|  3> %base "Scan_27"
|  4>
|  5> %scf
|  6> maxiter 999
|  7> end
|  8>
|  9> * xyz 0 1
| 10> N         -3.918623069295    2.086597574461   -0.000000000000
| 11> N         -0.761316930706    2.042842425539   -0.000000000000
| 12> **                         ****END OF INPUT****

CARTESIAN COORDINATES (ANGSTROEM)
---------------------------------
  N     -3.918623    2.086598   -0.000000
  N     -0.761317    2.042842   -0.000000

 Total Charge           Charge          ....    0
 Multiplicity           Mult            ....    1
 Number of Electrons    NEL             ....   14
 Basis Dimension        Dim             ....   28

ORBITAL ENERGIES
----------------

  NO   OCC          E(Eh)            E(eV)
   0   2.0000     -14.616748      -397.7419
   1   2.0000     -14.616097      -397.7242
   2   2.0000      -0.869698       -23.6657
   3   2.0000      -0.855593       -23.2819
   4   2.0000      -0.359127        -9.7723
   5   2.0000      -0.342362        -9.3161
   6   2.0000      -0.342361        -9.3161
   7   0.0000      -0.178713        -4.8630
   8   0.0000      -0.178712        -4.8630
   9   0.0000      -0.158969        -4.3258
  10   0.0000       0.651665        17.7327
  11   0.0000       0.729864        19.8606

MULLIKEN ATOMIC CHARGES
-----------------------
   0 N :   -0.000410
   1 N :    0.000410
Sum of atomic charges:    0.0000000

LOEWDIN ATOMIC CHARGES
----------------------
   0 N :   -0.000410
   1 N :    0.000410

  Mayer bond orders larger than 0.1
B(  0-N ,  1-N ) :   3.0007

Dispersion correction           -0.000187323
FINAL SINGLE POINT ENERGY      -108.724020785021

DIPOLE MOMENT
-------------
                                X             Y             Z
Electronic contribution:      0.00244      -0.00003       0.00000
Nuclear contribution   :     -0.00000      -0.00000       0.00000
                        -----------------------------------------
Total Dipole Moment    :      0.00244      -0.00003       0.00000
                        -----------------------------------------
Magnitude (a.u.)       :      0.00244
Magnitude (Debye)      :      0.00620

                             ****ORCA TERMINATED NORMALLY****
TOTAL RUN TIME: 0 days 0 hours 0 minutes 2 seconds 745 msec
