                         Program Version 4.0.0.2 - RELEASE -
|  1> ! WB97X-D3 6-31G(d) VerySlowConv
|  2> ! KDIIS NOSOSCF
|  3> %base "Scan_28"
|  4>
|  5> %scf
|  6> maxiter 999
|  7> end
|  8>
|  9> * xyz 0 1
| 10> N         -3.970053233266    2.087310313228   -0.000000000000
| 11> N         -0.709886766735    2.042129686772   -0.000000000000
| 12> **                         ****END OF INPUT****

CARTESIAN COORDINATES (ANGSTROEM)
---------------------------------
  N     -3.970053    2.087310   -0.000000
  N     -0.709887    2.042130   -0.000000

 Total Charge           Charge          ....    0
 Multiplicity           Mult            ....    1
 Number of Electrons    NEL             ....   14
 Basis Dimension        Dim             ....   28

ORBITAL ENERGIES
----------------

  NO   OCC          E(Eh)            E(eV)
   0   2.0000     -14.614373      -397.6773
   1   2.0000     -14.614218      -397.6731
   2   2.0000      -0.868012       -23.6198
   3   2.0000      -0.855636       -23.2830
   4   2.0000      -0.354119        -9.6361
   5   2.0000      -0.339062        -9.2263
   6   2.0000      -0.339061        -9.2263
   7   0.0000      -0.180525        -4.9123
   8   0.0000      -0.180524        -4.9123
   9   0.0000      -0.163144        -4.4394
  10   0.0000       0.656378        17.8610
  11   0.0000       0.733956        19.9719

MULLIKEN ATOMIC CHARGES
-----------------------
   0 N :    0.000095
   1 N :   -0.000095
Sum of atomic charges:   -0.0000000

LOEWDIN ATOMIC CHARGES
----------------------
   0 N :    0.000095
   1 N :   -0.000095

  Mayer bond orders larger than 0.1
B(  0-N ,  1-N ) :   3.0006

Dispersion correction           -0.000196353
FINAL SINGLE POINT ENERGY      -108.710939534105

DIPOLE MOMENT
-------------
                                X             Y             Z
Electronic contribution:     -0.00059       0.00001       0.00000
Nuclear contribution   :      0.00000      -0.00000       0.00000
                        -----------------------------------------
Total Dipole Moment    :     -0.00059       0.00001       0.00000
                        -----------------------------------------
Magnitude (a.u.)       :      0.00059
Magnitude (Debye)      :      0.00149

                             ****ORCA TERMINATED NORMALLY****
TOTAL RUN TIME: 0 days 0 hours 0 minutes 2 seconds 889 msec
