                         Program Version 4.0.0.2 - RELEASE -
|  1> ! WB97X-D3 6-31G(d) VerySlowConv
|  2> ! KDIIS NOSOSCF
|  3> %base "Scan_29"
|  4>
|  5> %scf
|  6> maxiter 999
|  7> end
|  8>
|  9> * xyz 0 1
| 10> N         -4.021359571851    2.088021335976   -0.000000000000
| 11> N         -0.658580428150    2.041418664024   -0.000000000000
| 12> **                         ****END OF INPUT****

CARTESIAN COORDINATES (ANGSTROEM)
---------------------------------
  N     -4.021360    2.088021   -0.000000
  N     -0.658580    2.041419   -0.000000

 Total Charge           Charge          ....    0
 Multiplicity           Mult            ....    1
 Number of Electrons    NEL             ....   14
 Basis Dimension        Dim             ....   28

ORBITAL ENERGIES
----------------

  NO   OCC          E(Eh)            E(eV)
   0   2.0000     -14.612357      -397.6224
   1   2.0000     -14.612082      -397.6150
   2   2.0000      -0.866461       -23.5776
   3   2.0000      -0.855513       -23.2797
   4   2.0000      -0.349394        -9.5075
   5   2.0000      -0.335916        -9.1408
   6   2.0000      -0.335916        -9.1407
   7   0.0000      -0.182148        -4.9565
   8   0.0000      -0.182148        -4.9565
   9   0.0000      -0.166842        -4.5400
  10   0.0000       0.663391        18.0518
  11   0.0000       0.737744        20.0750

MULLIKEN ATOMIC CHARGES
-----------------------
   0 N :    0.000170
   1 N :   -0.000170
Sum of atomic charges:   -0.0000000

LOEWDIN ATOMIC CHARGES
----------------------
   0 N :    0.000170
   1 N :   -0.000170

  Mayer bond orders larger than 0.1
B(  0-N ,  1-N ) :   3.0005

Dispersion correction           -0.000197304
FINAL SINGLE POINT ENERGY      -108.699001694672

DIPOLE MOMENT
-------------
                                X             Y             Z
Electronic contribution:     -0.00108       0.00001       0.00000
Nuclear contribution   :      0.00000      -0.00000       0.00000
                        -----------------------------------------
Total Dipole Moment    :     -0.00108       0.00001       0.00000
                        -----------------------------------------
Magnitude (a.u.)       :      0.00108
Magnitude (Debye)      :      0.00274

                             ****ORCA TERMINATED NORMALLY****
TOTAL RUN TIME: 0 days 0 hours 0 minutes 10 seconds 326 msec
