                         Program Version 4.0.0.2 - RELEASE -
|  1> ! WB97X-D3 6-31G(d) VerySlowConv
|  2> ! KDIIS NOSOSCF
|  3> %base "Scan_3"
|  4>
|  5> %scf
|  6> maxiter 999
|  7> end
|  8>
|  9> * xyz 0 1
| 10> N         -2.851411048873    2.071807744512    0.000000000000
| 11> N         -1.828528951127    2.057632255488   -0.000000000000
| 12> **                         ****END OF INPUT****

CARTESIAN COORDINATES (ANGSTROEM)
---------------------------------
  N     -2.851411    2.071808    0.000000
  N     -1.828529    2.057632   -0.000000

 Total Charge           Charge          ....    0
 Multiplicity           Mult            ....    1
 Number of Electrons    NEL             ....   14
 Basis Dimension        Dim             ....   28

ORBITAL ENERGIES
----------------

  NO   OCC          E(Eh)            E(eV)
   0   2.0000     -14.523527      -395.2053
   1   2.0000     -14.520306      -395.1176
   2   2.0000      -1.285725       -34.9864
   3   2.0000      -0.634337       -17.2612
   4   2.0000      -0.589537       -16.0421
   5   2.0000      -0.589533       -16.0420
   6   2.0000      -0.529784       -14.4162
   7   0.0000       0.114517         3.1162
   8   0.0000       0.114518         3.1162
   9   0.0000       0.541750        14.7418
  10   0.0000       0.676288        18.4027
  11   0.0000       0.692788        18.8517

MULLIKEN ATOMIC CHARGES
-----------------------
   0 N :   -0.000000
   1 N :    0.000000
Sum of atomic charges:    0.0000000

LOEWDIN ATOMIC CHARGES
----------------------
   0 N :   -0.000000
   1 N :    0.000000

  Mayer bond orders larger than 0.1
B(  0-N ,  1-N ) :   2.8258

Dispersion correction           -0.000000033
FINAL SINGLE POINT ENERGY      -109.467147417975

DIPOLE MOMENT
-------------
                                X             Y             Z
Electronic contribution:     -0.00000       0.00000       0.00000
Nuclear contribution   :      0.00000      -0.00000       0.00000
                        -----------------------------------------
Total Dipole Moment    :     -0.00000       0.00000       0.00000
                        -----------------------------------------
Magnitude (a.u.)       :      0.00000
Magnitude (Debye)      :      0.00000

                             ****ORCA TERMINATED NORMALLY****
TOTAL RUN TIME: 0 days 0 hours 0 minutes 10 seconds 39 msec
