                         Program Version 4.0.0.2 - RELEASE -
|  1> ! WB97X-D3 6-31G(d) VerySlowConv
|  2> ! KDIIS NOSOSCF
|  3> %base "Scan_30"
|  4>
|  5> %scf
|  6> maxiter 999
|  7> end
|  8>
|  9> * xyz 0 1
| 10> N         -4.072591510869    2.088731327666   -0.000000000000
| 11> N         -0.607348489132    2.040708672334   -0.000000000000
| 12> **                         ****END OF INPUT****

CARTESIAN COORDINATES (ANGSTROEM)
---------------------------------
  N     -4.072592    2.088731   -0.000000
  N     -0.607348    2.040709   -0.000000

 Total Charge           Charge          ....    0
 Multiplicity           Mult            ....    1
 Number of Electrons    NEL             ....   14
 Basis Dimension        Dim             ....   28

ORBITAL ENERGIES
----------------

  NO   OCC          E(Eh)            E(eV)
   0   2.0000     -14.610261      -397.5654
   1   2.0000     -14.610078      -397.5604
   2   2.0000      -0.865008       -23.5381
   3   2.0000      -0.855258       -23.2727
   4   2.0000      -0.344930        -9.3860
   5   2.0000      -0.332908        -9.0589
   6   2.0000      -0.332907        -9.0589
   7   0.0000      -0.183600        -4.9960
   8   0.0000      -0.183600        -4.9960
   9   0.0000      -0.170137        -4.6297
  10   0.0000       0.672004        18.2862
  11   0.0000       0.741175        20.1684

MULLIKEN ATOMIC CHARGES
-----------------------
   0 N :    0.000112
   1 N :   -0.000112
Sum of atomic charges:   -0.0000000

LOEWDIN ATOMIC CHARGES
----------------------
   0 N :    0.000112
   1 N :   -0.000112

  Mayer bond orders larger than 0.1
B(  0-N ,  1-N ) :   3.0004

Dispersion correction           -0.000192643
FINAL SINGLE POINT ENERGY      -108.688096747982

DIPOLE MOMENT
-------------
                                X             Y             Z
Electronic contribution:     -0.00073       0.00001       0.00000
Nuclear contribution   :      0.00000      -0.00000       0.00000
                        -----------------------------------------
Total Dipole Moment    :     -0.00073       0.00001       0.00000
                        -----------------------------------------
Magnitude (a.u.)       :      0.00073
Magnitude (Debye)      :      0.00185

                             ****ORCA TERMINATED NORMALLY****
TOTAL RUN TIME: 0 days 0 hours 0 minutes 2 seconds 342 msec
