                         Program Version 4.0.0.2 - RELEASE -
|  1> ! WB97X-D3 6-31G(d) VerySlowConv
|  2> ! KDIIS NOSOSCF
|  3> %base "Scan_31"
|  4>
|  5> %scf
|  6> maxiter 999
|  7> end
|  8>
|  9> * xyz 0 1
| 10> N         -4.123779411282    2.089440709052   -0.000000000000
| 11> N         -0.556160588719    2.039999290948   -0.000000000000
| 12> **                         ****END OF INPUT****

CARTESIAN COORDINATES (ANGSTROEM)
---------------------------------
  N     -4.123779    2.089441   -0.000000
  N     -0.556161    2.039999   -0.000000

 Total Charge           Charge          ....    0
 Multiplicity           Mult            ....    1
 Number of Electrons    NEL             ....   14
 Basis Dimension        Dim             ....   28

ORBITAL ENERGIES
----------------

  NO   OCC          E(Eh)            E(eV)
   0   2.0000     -14.608231      -397.5102
   1   2.0000     -14.608176      -397.5087
   2   2.0000      -0.863668       -23.5016
   3   2.0000      -0.854929       -23.2638
   4   2.0000      -0.340741        -9.2720
   5   2.0000      -0.330046        -8.9810
   6   2.0000      -0.330046        -8.9810
   7   0.0000      -0.184926        -5.0321
   8   0.0000      -0.184926        -5.0321
   9   0.0000      -0.173090        -4.7100
  10   0.0000       0.681482        18.5441
  11   0.0000       0.744214        20.2511

MULLIKEN ATOMIC CHARGES
-----------------------
   0 N :    0.000026
   1 N :   -0.000026
Sum of atomic charges:   -0.0000000

LOEWDIN ATOMIC CHARGES
----------------------
   0 N :    0.000026
   1 N :   -0.000026

  Mayer bond orders larger than 0.1
B(  0-N ,  1-N ) :   3.0003

Dispersion correction           -0.000184922
FINAL SINGLE POINT ENERGY      -108.678110196887

DIPOLE MOMENT
-------------
                                X             Y             Z
Electronic contribution:     -0.00018       0.00000      -0.00000
Nuclear contribution   :      0.00000      -0.00000       0.00000
                        -----------------------------------------
Total Dipole Moment    :     -0.00018       0.00000      -0.00000
                        -----------------------------------------
Magnitude (a.u.)       :      0.00018
Magnitude (Debye)      :      0.00045

                             ****ORCA TERMINATED NORMALLY****
TOTAL RUN TIME: 0 days 0 hours 0 minutes 2 seconds 396 msec
