                         Program Version 4.0.0.2 - RELEASE -
|  1> ! WB97X-D3 6-31G(d) VerySlowConv
|  2> ! KDIIS NOSOSCF
|  3> %base "Scan_32"
|  4>
|  5> %scf
|  6> maxiter 999
|  7> end
|  8>
|  9> * xyz 0 1
| 10> N         -4.174942005406    2.090149739734   -0.000000000000
| 11> N         -0.504997994595    2.039290260265   -0.000000000000
| 12> **                         ****END OF INPUT****

CARTESIAN COORDINATES (ANGSTROEM)
---------------------------------
  N     -4.174942    2.090150   -0.000000
  N     -0.504998    2.039290   -0.000000

 Total Charge           Charge          ....    0
 Multiplicity           Mult            ....    1
 Number of Electrons    NEL             ....   14
 Basis Dimension        Dim             ....   28

ORBITAL ENERGIES
----------------

  NO   OCC          E(Eh)            E(eV)
   0   2.0000     -14.606340      -397.4587
   1   2.0000     -14.606268      -397.4568
   2   2.0000      -0.862427       -23.4678
   3   2.0000      -0.854545       -23.2534
   4   2.0000      -0.336816        -9.1652
   5   2.0000      -0.327322        -8.9069
   6   2.0000      -0.327322        -8.9069
   7   0.0000      -0.186144        -5.0652
   8   0.0000      -0.186144        -5.0652
   9   0.0000      -0.175737        -4.7820
  10   0.0000       0.691262        18.8102
  11   0.0000       0.746874        20.3235

MULLIKEN ATOMIC CHARGES
-----------------------
   0 N :    0.000038
   1 N :   -0.000038
Sum of atomic charges:    0.0000000

LOEWDIN ATOMIC CHARGES
----------------------
   0 N :    0.000038
   1 N :   -0.000038

  Mayer bond orders larger than 0.1
B(  0-N ,  1-N ) :   3.0002

Dispersion correction           -0.000175689
FINAL SINGLE POINT ENERGY      -108.668950660796

DIPOLE MOMENT
-------------
                                X             Y             Z
Electronic contribution:     -0.00027       0.00000       0.00000
Nuclear contribution   :      0.00000      -0.00000       0.00000
                        -----------------------------------------
Total Dipole Moment    :     -0.00027       0.00000       0.00000
                        -----------------------------------------
Magnitude (a.u.)       :      0.00027
Magnitude (Debye)      :      0.00068

                             ****ORCA TERMINATED NORMALLY****
TOTAL RUN TIME: 0 days 0 hours 0 minutes 3 seconds 330 msec
