                         Program Version 4.0.0.2 - RELEASE -
|  1> ! WB97X-D3 6-31G(d) VerySlowConv
|  2> ! KDIIS NOSOSCF
|  3> %base "Scan_33"
|  4>
|  5> %scf
|  6> maxiter 999
|  7> end
|  8>
|  9> * xyz 0 1
| 10> N         -4.226090580821    2.090858576140   -0.000000000000
| 11> N         -0.453849419180    2.038581423860   -0.000000000000
| 12> **                         ****END OF INPUT****

CARTESIAN COORDINATES (ANGSTROEM)
---------------------------------
  N     -4.226091    2.090859   -0.000000
  N     -0.453849    2.038581   -0.000000

 Total Charge           Charge          ....    0
 Multiplicity           Mult            ....    1
 Number of Electrons    NEL             ....   14
 Basis Dimension        Dim             ....   28

ORBITAL ENERGIES
----------------

  NO   OCC          E(Eh)            E(eV)
   0   2.0000     -14.604806      -397.4170
   1   2.0000     -14.604524      -397.4093
   2   2.0000      -0.861333       -23.4381
   3   2.0000      -0.854187       -23.2436
   4   2.0000      -0.333207        -9.0670
   5   2.0000      -0.324794        -8.8381
   6   2.0000      -0.324794        -8.8381
   7   0.0000      -0.187338        -5.0977
   8   0.0000      -0.187338        -5.0977
   9   0.0000      -0.178192        -4.8489
  10   0.0000       0.700894        19.0723
  11   0.0000       0.749124        20.3847

MULLIKEN ATOMIC CHARGES
-----------------------
   0 N :    0.000171
   1 N :   -0.000171
Sum of atomic charges:   -0.0000000

LOEWDIN ATOMIC CHARGES
----------------------
   0 N :    0.000171
   1 N :   -0.000171

  Mayer bond orders larger than 0.1
B(  0-N ,  1-N ) :   3.0002

Dispersion correction           -0.000165471
FINAL SINGLE POINT ENERGY      -108.660552172013

DIPOLE MOMENT
-------------
                                X             Y             Z
Electronic contribution:     -0.00121       0.00002      -0.00000
Nuclear contribution   :      0.00000      -0.00000       0.00000
                        -----------------------------------------
Total Dipole Moment    :     -0.00121       0.00002      -0.00000
                        -----------------------------------------
Magnitude (a.u.)       :      0.00121
Magnitude (Debye)      :      0.00309

                             ****ORCA TERMINATED NORMALLY****
TOTAL RUN TIME: 0 days 0 hours 0 minutes 2 seconds 909 msec
