                         Program Version 4.0.0.2 - RELEASE -
|  1> ! WB97X-D3 6-31G(d) VerySlowConv
|  2> ! KDIIS NOSOSCF
|  3> %base "Scan_34"
|  4>
|  5> %scf
|  6> maxiter 999
|  7> end
|  8>
|  9> * xyz 0 1
| 10> N         -4.277231718000    2.091567309464   -0.000000000000
| 11> N         -0.402708282001    2.037872690536   -0.000000000000
| 12> **                         ****END OF INPUT****

CARTESIAN COORDINATES (ANGSTROEM)
---------------------------------
  N     -4.277232    2.091567   -0.000000
  N     -0.402708    2.037873   -0.000000

 Total Charge           Charge          ....    0
 Multiplicity           Mult            ....    1
 Number of Electrons    NEL             ....   14
 Basis Dimension        Dim             ....   28

ORBITAL ENERGIES
----------------

  NO   OCC          E(Eh)            E(eV)
   0   2.0000     -14.603292      -397.3758
   1   2.0000     -14.602918      -397.3656
   2   2.0000      -0.860321       -23.4105
   3   2.0000      -0.853805       -23.2332
   4   2.0000      -0.329842        -8.9755
   5   2.0000      -0.322400        -8.7729
   6   2.0000      -0.322399        -8.7729
   7   0.0000      -0.188463        -5.1283
   8   0.0000      -0.188463        -5.1283
   9   0.0000      -0.180428        -4.9097
  10   0.0000       0.710028        19.3208
  11   0.0000       0.751043        20.4369

MULLIKEN ATOMIC CHARGES
-----------------------
   0 N :    0.000226
   1 N :   -0.000226
Sum of atomic charges:    0.0000000

LOEWDIN ATOMIC CHARGES
----------------------
   0 N :    0.000226
   1 N :   -0.000226

  Mayer bond orders larger than 0.1
B(  0-N ,  1-N ) :   3.0001

Dispersion correction           -0.000154318
FINAL SINGLE POINT ENERGY      -108.652835797184

DIPOLE MOMENT
-------------
                                X             Y             Z
Electronic contribution:     -0.00165       0.00002      -0.00000
Nuclear contribution   :      0.00000      -0.00000       0.00000
                        -----------------------------------------
Total Dipole Moment    :     -0.00165       0.00002      -0.00000
                        -----------------------------------------
Magnitude (a.u.)       :      0.00165
Magnitude (Debye)      :      0.00420

                             ****ORCA TERMINATED NORMALLY****
TOTAL RUN TIME: 0 days 0 hours 0 minutes 3 seconds 642 msec
