                         Program Version 4.0.0.2 - RELEASE -
|  1> ! WB97X-D3 6-31G(d) VerySlowConv
|  2> ! KDIIS NOSOSCF
|  3> %base "Scan_35"
|  4>
|  5> %scf
|  6> maxiter 999
|  7> end
|  8>
|  9> * xyz 0 1
| 10> N         -4.328369109379    2.092275990876   -0.000000000000
| 11> N         -0.351570890622    2.037164009123   -0.000000000000
| 12> **                         ****END OF INPUT****

CARTESIAN COORDINATES (ANGSTROEM)
---------------------------------
  N     -4.328369    2.092276   -0.000000
  N     -0.351571    2.037164   -0.000000

 Total Charge           Charge          ....    0
 Multiplicity           Mult            ....    1
 Number of Electrons    NEL             ....   14
 Basis Dimension        Dim             ....   28

ORBITAL ENERGIES
----------------

  NO   OCC          E(Eh)            E(eV)
   0   2.0000     -14.601822      -397.3358
   1   2.0000     -14.601651      -397.3311
   2   2.0000      -0.859422       -23.3861
   3   2.0000      -0.853459       -23.2238
   4   2.0000      -0.326743        -8.8911
   5   2.0000      -0.320164        -8.7121
   6   2.0000      -0.320164        -8.7121
   7   0.0000      -0.189567        -5.1584
   8   0.0000      -0.189566        -5.1584
   9   0.0000      -0.182492        -4.9658
  10   0.0000       0.718350        19.5473
  11   0.0000       0.752653        20.4807

MULLIKEN ATOMIC CHARGES
-----------------------
   0 N :    0.000101
   1 N :   -0.000101
Sum of atomic charges:    0.0000000

LOEWDIN ATOMIC CHARGES
----------------------
   0 N :    0.000101
   1 N :   -0.000101

  Mayer bond orders larger than 0.1
B(  0-N ,  1-N ) :   3.0001

Dispersion correction           -0.000142294
FINAL SINGLE POINT ENERGY      -108.645736722096

DIPOLE MOMENT
-------------
                                X             Y             Z
Electronic contribution:     -0.00076       0.00001      -0.00000
Nuclear contribution   :      0.00000       0.00000       0.00000
                        -----------------------------------------
Total Dipole Moment    :     -0.00076       0.00001      -0.00000
                        -----------------------------------------
Magnitude (a.u.)       :      0.00076
Magnitude (Debye)      :      0.00193

                             ****ORCA TERMINATED NORMALLY****
TOTAL RUN TIME: 0 days 0 hours 0 minutes 2 seconds 844 msec
