                         Program Version 4.0.0.2 - RELEASE -
|  1> ! WB97X-D3 6-31G(d) VerySlowConv
|  2> ! KDIIS NOSOSCF
|  3> %base "Scan_36"
|  4>
|  5> %scf
|  6> maxiter 999
|  7> end
|  8>
|  9> * xyz 0 1
| 10> N         -4.379504736312    2.092984647837   -0.000000000000
| 11> N         -0.300435263689    2.036455352163   -0.000000000000
| 12> **                         ****END OF INPUT****

CARTESIAN COORDINATES (ANGSTROEM)
---------------------------------
  N     -4.379505    2.092985   -0.000000
  N     -0.300435    2.036455   -0.000000

 Total Charge           Charge          ....    0
 Multiplicity           Mult            ....    1
 Number of Electrons    NEL             ....   14
 Basis Dimension        Dim             ....   28

ORBITAL ENERGIES
----------------

  NO   OCC          E(Eh)            E(eV)
   0   2.0000     -14.600696      -397.3051
   1   2.0000     -14.600299      -397.2943
   2   2.0000      -0.858623       -23.3643
   3   2.0000      -0.853139       -23.2151
   4   2.0000      -0.323879        -8.8132
   5   2.0000      -0.318062        -8.6549
   6   2.0000      -0.318062        -8.6549
   7   0.0000      -0.190637        -5.1875
   8   0.0000      -0.190636        -5.1875
   9   0.0000      -0.184411        -5.0181
  10   0.0000       0.725740        19.7484
  11   0.0000       0.754005        20.5175

MULLIKEN ATOMIC CHARGES
-----------------------
   0 N :   -0.000239
   1 N :    0.000239
Sum of atomic charges:   -0.0000000

LOEWDIN ATOMIC CHARGES
----------------------
   0 N :   -0.000239
   1 N :    0.000239

  Mayer bond orders larger than 0.1
B(  0-N ,  1-N ) :   3.0001

Dispersion correction           -0.000129681
FINAL SINGLE POINT ENERGY      -108.639194603936

DIPOLE MOMENT
-------------
                                X             Y             Z
Electronic contribution:      0.00184      -0.00003      -0.00000
Nuclear contribution   :      0.00000      -0.00000       0.00000
                        -----------------------------------------
Total Dipole Moment    :      0.00184      -0.00003      -0.00000
                        -----------------------------------------
Magnitude (a.u.)       :      0.00184
Magnitude (Debye)      :      0.00467

                             ****ORCA TERMINATED NORMALLY****
TOTAL RUN TIME: 0 days 0 hours 0 minutes 3 seconds 126 msec
