                         Program Version 4.0.0.2 - RELEASE -
|  1> ! WB97X-D3 6-31G(d) VerySlowConv
|  2> ! KDIIS NOSOSCF
|  3> %base "Scan_37"
|  4>
|  5> %scf
|  6> maxiter 999
|  7> end
|  8>
|  9> * xyz 0 1
| 10> N         -4.430639598531    2.093693294200   -0.000000000000
| 11> N         -0.249300401470    2.035746705800   -0.000000000000
| 12> **                         ****END OF INPUT****

CARTESIAN COORDINATES (ANGSTROEM)
---------------------------------
  N     -4.430640    2.093693   -0.000000
  N     -0.249300    2.035747   -0.000000

 Total Charge           Charge          ....    0
 Multiplicity           Mult            ....    1
 Number of Electrons    NEL             ....   14
 Basis Dimension        Dim             ....   28

ORBITAL ENERGIES
----------------

  NO   OCC          E(Eh)            E(eV)
   0   2.0000     -14.599441      -397.2710
   1   2.0000     -14.599407      -397.2701
   2   2.0000      -0.857929       -23.3454
   3   2.0000      -0.852872       -23.2078
   4   2.0000      -0.321262        -8.7420
   5   2.0000      -0.316104        -8.6016
   6   2.0000      -0.316104        -8.6016
   7   0.0000      -0.191698        -5.2164
   8   0.0000      -0.191698        -5.2164
   9   0.0000      -0.186218        -5.0672
  10   0.0000       0.732139        19.9225
  11   0.0000       0.755116        20.5478

MULLIKEN ATOMIC CHARGES
-----------------------
   0 N :    0.000008
   1 N :   -0.000008
Sum of atomic charges:    0.0000000

LOEWDIN ATOMIC CHARGES
----------------------
   0 N :    0.000008
   1 N :   -0.000008

  Mayer bond orders larger than 0.1
B(  0-N ,  1-N ) :   3.0000

Dispersion correction           -0.000116926
FINAL SINGLE POINT ENERGY      -108.633140040326

DIPOLE MOMENT
-------------
                                X             Y             Z
Electronic contribution:     -0.00007       0.00000       0.00000
Nuclear contribution   :      0.00000      -0.00000       0.00000
                        -----------------------------------------
Total Dipole Moment    :     -0.00007       0.00000       0.00000
                        -----------------------------------------
Magnitude (a.u.)       :      0.00007
Magnitude (Debye)      :      0.00017

                             ****ORCA TERMINATED NORMALLY****
TOTAL RUN TIME: 0 days 0 hours 0 minutes 9 seconds 541 msec
