                         Program Version 4.0.0.2 - RELEASE -
|  1> ! WB97X-D3 6-31G(d) VerySlowConv
|  2> ! KDIIS NOSOSCF
|  3> %base "Scan_38"
|  4>
|  5> %scf
|  6> maxiter 999
|  7> end
|  8>
|  9> * xyz 0 1
| 10> N         -4.481774156283    2.094401936344   -0.000000000000
| 11> N         -0.198165843717    2.035038063656   -0.000000000000
| 12> **                         ****END OF INPUT****

CARTESIAN COORDINATES (ANGSTROEM)
---------------------------------
  N     -4.481774    2.094402   -0.000000
  N     -0.198166    2.035038   -0.000000

 Total Charge           Charge          ....    0
 Multiplicity           Mult            ....    1
 Number of Electrons    NEL             ....   14
 Basis Dimension        Dim             ....   28

ORBITAL ENERGIES
----------------

  NO   OCC          E(Eh)            E(eV)
   0   2.0000     -14.598548      -397.2467
   1   2.0000     -14.598517      -397.2458
   2   2.0000      -0.857337       -23.3293
   3   2.0000      -0.852653       -23.2019
   4   2.0000      -0.318882        -8.6772
   5   2.0000      -0.314290        -8.5523
   6   2.0000      -0.314290        -8.5523
   7   0.0000      -0.192760        -5.2453
   8   0.0000      -0.192760        -5.2453
   9   0.0000      -0.187934        -5.1140
  10   0.0000       0.737585        20.0707
  11   0.0000       0.756011        20.5721

MULLIKEN ATOMIC CHARGES
-----------------------
   0 N :    0.000006
   1 N :   -0.000006
Sum of atomic charges:    0.0000000

LOEWDIN ATOMIC CHARGES
----------------------
   0 N :    0.000006
   1 N :   -0.000006

  Mayer bond orders larger than 0.1
B(  0-N ,  1-N ) :   3.0000

Dispersion correction           -0.000104494
FINAL SINGLE POINT ENERGY      -108.627523022215

DIPOLE MOMENT
-------------
                                X             Y             Z
Electronic contribution:     -0.00005       0.00000       0.00000
Nuclear contribution   :      0.00000      -0.00000       0.00000
                        -----------------------------------------
Total Dipole Moment    :     -0.00005       0.00000       0.00000
                        -----------------------------------------
Magnitude (a.u.)       :      0.00005
Magnitude (Debye)      :      0.00013

                             ****ORCA TERMINATED NORMALLY****
TOTAL RUN TIME: 0 days 0 hours 0 minutes 2 seconds 854 msec
