                         Program Version 4.0.0.2 - RELEASE -
|  1> ! WB97X-D3 6-31G(d) VerySlowConv
|  2> ! KDIIS NOSOSCF
|  3> %base "Scan_39"
|  4>
|  5> %scf
|  6> maxiter 999
|  7> end
|  8>
|  9> * xyz 0 1
| 10> N         -4.532908587277    2.095110576730   -0.000000000000
| 11> N         -0.147031412724    2.034329423269   -0.000000000000
| 12> **                         ****END OF INPUT****

CARTESIAN COORDINATES (ANGSTROEM)
---------------------------------
  N     -4.532909    2.095111   -0.000000
  N     -0.147031    2.034329   -0.000000

 Total Charge           Charge          ....    0
 Multiplicity           Mult            ....    1
 Number of Electrons    NEL             ....   14
 Basis Dimension        Dim             ....   28

ORBITAL ENERGIES
----------------

  NO   OCC          E(Eh)            E(eV)
   0   2.0000     -14.597818      -397.2268
   1   2.0000     -14.597789      -397.2260
   2   2.0000      -0.856831       -23.3156
   3   2.0000      -0.852478       -23.1971
   4   2.0000      -0.316709        -8.6181
   5   2.0000      -0.312608        -8.5065
   6   2.0000      -0.312607        -8.5065
   7   0.0000      -0.193823        -5.2742
   8   0.0000      -0.193823        -5.2742
   9   0.0000      -0.189561        -5.1582
  10   0.0000       0.742131        20.1944
  11   0.0000       0.756723        20.5915

MULLIKEN ATOMIC CHARGES
-----------------------
   0 N :    0.000003
   1 N :   -0.000003
Sum of atomic charges:    0.0000000

LOEWDIN ATOMIC CHARGES
----------------------
   0 N :    0.000003
   1 N :   -0.000003

  Mayer bond orders larger than 0.1
B(  0-N ,  1-N ) :   3.0000

Dispersion correction           -0.000092763
FINAL SINGLE POINT ENERGY      -108.622304795729

DIPOLE MOMENT
-------------
                                X             Y             Z
Electronic contribution:     -0.00002       0.00000       0.00000
Nuclear contribution   :      0.00000       0.00000       0.00000
                        -----------------------------------------
Total Dipole Moment    :     -0.00002       0.00000       0.00000
                        -----------------------------------------
Magnitude (a.u.)       :      0.00002
Magnitude (Debye)      :      0.00005

                             ****ORCA TERMINATED NORMALLY****
TOTAL RUN TIME: 0 days 0 hours 0 minutes 3 seconds 95 msec
