                         Program Version 4.0.0.2 - RELEASE -
|  1> ! WB97X-D3 6-31G(d) VerySlowConv
|  2> ! KDIIS NOSOSCF
|  3> %base "Scan_4"
|  4>
|  5> %scf
|  6> maxiter 999
|  7> end
|  8>
|  9> * xyz 0 1
| 10> N         -2.859779627480    2.071923719456    0.000000000000
| 11> N         -1.820160372520    2.057516280544   -0.000000000000
| 12> **                         ****END OF INPUT****

CARTESIAN COORDINATES (ANGSTROEM)
---------------------------------
  N     -2.859780    2.071924    0.000000
  N     -1.820160    2.057516   -0.000000

 Total Charge           Charge          ....    0
 Multiplicity           Mult            ....    1
 Number of Electrons    NEL             ....   14
 Basis Dimension        Dim             ....   28

ORBITAL ENERGIES
----------------

  NO   OCC          E(Eh)            E(eV)
   0   2.0000     -14.527768      -395.3207
   1   2.0000     -14.525036      -395.2463
   2   2.0000      -1.276072       -34.7237
   3   2.0000      -0.639324       -17.3969
   4   2.0000      -0.583318       -15.8729
   5   2.0000      -0.583314       -15.8728
   6   2.0000      -0.529167       -14.3994
   7   0.0000       0.105360         2.8670
   8   0.0000       0.105360         2.8670
   9   0.0000       0.536988        14.6122
  10   0.0000       0.680621        18.5206
  11   0.0000       0.696633        18.9563

MULLIKEN ATOMIC CHARGES
-----------------------
   0 N :   -0.000000
   1 N :    0.000000
Sum of atomic charges:   -0.0000000

LOEWDIN ATOMIC CHARGES
----------------------
   0 N :   -0.000000
   1 N :    0.000000

  Mayer bond orders larger than 0.1
B(  0-N ,  1-N ) :   2.8247

Dispersion correction           -0.000000037
FINAL SINGLE POINT ENERGY      -109.476123173258

DIPOLE MOMENT
-------------
                                X             Y             Z
Electronic contribution:      0.00000      -0.00000      -0.00000
Nuclear contribution   :      0.00000      -0.00000       0.00000
                        -----------------------------------------
Total Dipole Moment    :      0.00000      -0.00000      -0.00000
                        -----------------------------------------
Magnitude (a.u.)       :      0.00000
Magnitude (Debye)      :      0.00000

                             ****ORCA TERMINATED NORMALLY****
TOTAL RUN TIME: 0 days 0 hours 0 minutes 2 seconds 895 msec
