                         Program Version 4.0.0.2 - RELEASE -
|  1> ! WB97X-D3 6-31G(d) VerySlowConv
|  2> ! KDIIS NOSOSCF
|  3> %base "Scan_40"
|  4>
|  5> %scf
|  6> maxiter 999
|  7> end
|  8>
|  9> * xyz 0 1
| 10> N         -4.584042932647    2.095819215931   -0.000000000000
| 11> N         -0.095897067354    2.033620784069   -0.000000000000
| 12> **                         ****END OF INPUT****

CARTESIAN COORDINATES (ANGSTROEM)
---------------------------------
  N     -4.584043    2.095819   -0.000000
  N     -0.095897    2.033621   -0.000000

 Total Charge           Charge          ....    0
 Multiplicity           Mult            ....    1
 Number of Electrons    NEL             ....   14
 Basis Dimension        Dim             ....   28

ORBITAL ENERGIES
----------------

  NO   OCC          E(Eh)            E(eV)
   0   2.0000     -14.597224      -397.2106
   1   2.0000     -14.597196      -397.2099
   2   2.0000      -0.856400       -23.3038
   3   2.0000      -0.852342       -23.1934
   4   2.0000      -0.314711        -8.5637
   5   2.0000      -0.311043        -8.4639
   6   2.0000      -0.311042        -8.4639
   7   0.0000      -0.194881        -5.3030
   8   0.0000      -0.194881        -5.3030
   9   0.0000      -0.191093        -5.1999
  10   0.0000       0.745832        20.2951
  11   0.0000       0.757284        20.6067

MULLIKEN ATOMIC CHARGES
-----------------------
   0 N :    0.000003
   1 N :   -0.000003
Sum of atomic charges:    0.0000000

LOEWDIN ATOMIC CHARGES
----------------------
   0 N :    0.000003
   1 N :   -0.000003

  Mayer bond orders larger than 0.1
B(  0-N ,  1-N ) :   3.0000

Dispersion correction           -0.000081972
FINAL SINGLE POINT ENERGY      -108.617447204077

DIPOLE MOMENT
-------------
                                X             Y             Z
Electronic contribution:     -0.00002       0.00000      -0.00000
Nuclear contribution   :      0.00000      -0.00000       0.00000
                        -----------------------------------------
Total Dipole Moment    :     -0.00002       0.00000      -0.00000
                        -----------------------------------------
Magnitude (a.u.)       :      0.00002
Magnitude (Debye)      :      0.00005

                             ****ORCA TERMINATED NORMALLY****
TOTAL RUN TIME: 0 days 0 hours 0 minutes 2 seconds 969 msec
