                         Program Version 4.0.0.2 - RELEASE -
|  1> ! WB97X-D3 6-31G(d) VerySlowConv
|  2> ! KDIIS NOSOSCF
|  3> %base "Scan_41"
|  4>
|  5> %scf
|  6> maxiter 999
|  7> end
|  8>
|  9> * xyz 0 1
| 10> N         -4.635177176471    2.096527853724    0.000000000000
| 11> N         -0.044762823529    2.032912146276   -0.000000000000
| 12> **                         ****END OF INPUT****

CARTESIAN COORDINATES (ANGSTROEM)
---------------------------------
  N     -4.635177    2.096528    0.000000
  N     -0.044763    2.032912   -0.000000

 Total Charge           Charge          ....    0
 Multiplicity           Mult            ....    1
 Number of Electrons    NEL             ....   14
 Basis Dimension        Dim             ....   28

ORBITAL ENERGIES
----------------

  NO   OCC          E(Eh)            E(eV)
   0   2.0000     -14.596726      -397.1971
   1   2.0000     -14.596700      -397.1964
   2   2.0000      -0.856033       -23.2938
   3   2.0000      -0.852240       -23.1906
   4   2.0000      -0.312865        -8.5135
   5   2.0000      -0.309577        -8.4240
   6   2.0000      -0.309576        -8.4240
   7   0.0000      -0.195925        -5.3314
   8   0.0000      -0.195924        -5.3314
   9   0.0000      -0.192539        -5.2392
  10   0.0000       0.748801        20.3759
  11   0.0000       0.757725        20.6188

MULLIKEN ATOMIC CHARGES
-----------------------
   0 N :    0.000001
   1 N :   -0.000001
Sum of atomic charges:    0.0000000

LOEWDIN ATOMIC CHARGES
----------------------
   0 N :    0.000001
   1 N :   -0.000001

  Mayer bond orders larger than 0.1
B(  0-N ,  1-N ) :   3.0000

Dispersion correction           -0.000072235
FINAL SINGLE POINT ENERGY      -108.612909021254

DIPOLE MOMENT
-------------
                                X             Y             Z
Electronic contribution:     -0.00001       0.00000       0.00000
Nuclear contribution   :      0.00000      -0.00000       0.00000
                        -----------------------------------------
Total Dipole Moment    :     -0.00001       0.00000       0.00000
                        -----------------------------------------
Magnitude (a.u.)       :      0.00001
Magnitude (Debye)      :      0.00002

                             ****ORCA TERMINATED NORMALLY****
TOTAL RUN TIME: 0 days 0 hours 0 minutes 2 seconds 522 msec
