                         Program Version 4.0.0.2 - RELEASE -
|  1> ! WB97X-D3 6-31G(d) VerySlowConv
|  2> ! KDIIS NOSOSCF
|  3> %base "Scan_42"
|  4>
|  5> %scf
|  6> maxiter 999
|  7> end
|  8>
|  9> * xyz 0 1
| 10> N         -4.686311285766    2.097236489652   -0.000000000000
| 11> N          0.006371285765    2.032203510348   -0.000000000000
| 12> **                         ****END OF INPUT****

CARTESIAN COORDINATES (ANGSTROEM)
---------------------------------
  N     -4.686311    2.097236   -0.000000
  N      0.006371    2.032204   -0.000000

 Total Charge           Charge          ....    0
 Multiplicity           Mult            ....    1
 Number of Electrons    NEL             ....   14
 Basis Dimension        Dim             ....   28

ORBITAL ENERGIES
----------------

  NO   OCC          E(Eh)            E(eV)
   0   2.0000     -14.596310      -397.1858
   1   2.0000     -14.596285      -397.1851
   2   2.0000      -0.855723       -23.2854
   3   2.0000      -0.852170       -23.1887
   4   2.0000      -0.311164        -8.4672
   5   2.0000      -0.308199        -8.3865
   6   2.0000      -0.308199        -8.3865
   7   0.0000      -0.196951        -5.3593
   8   0.0000      -0.196951        -5.3593
   9   0.0000      -0.193918        -5.2768
  10   0.0000       0.751166        20.4403
  11   0.0000       0.758070        20.6281

MULLIKEN ATOMIC CHARGES
-----------------------
   0 N :    0.000001
   1 N :   -0.000001
Sum of atomic charges:   -0.0000000

LOEWDIN ATOMIC CHARGES
----------------------
   0 N :    0.000001
   1 N :   -0.000001

  Mayer bond orders larger than 0.1
B(  0-N ,  1-N ) :   3.0000

Dispersion correction           -0.000063568
FINAL SINGLE POINT ENERGY      -108.608653165030

DIPOLE MOMENT
-------------
                                X             Y             Z
Electronic contribution:     -0.00001       0.00000       0.00000
Nuclear contribution   :      0.00000      -0.00000       0.00000
                        -----------------------------------------
Total Dipole Moment    :     -0.00001       0.00000       0.00000
                        -----------------------------------------
Magnitude (a.u.)       :      0.00001
Magnitude (Debye)      :      0.00002

                             ****ORCA TERMINATED NORMALLY****
TOTAL RUN TIME: 0 days 0 hours 0 minutes 2 seconds 601 msec
