                         Program Version 4.0.0.2 - RELEASE -
|  1> ! WB97X-D3 6-31G(d) VerySlowConv
|  2> ! KDIIS NOSOSCF
|  3> %base "Scan_43"
|  4>
|  5> %scf
|  6> maxiter 999
|  7> end
|  8>
|  9> * xyz 0 1
| 10> N         -4.737445230407    2.097945123299   -0.000000000000
| 11> N          0.057505230407    2.031494876701    0.000000000000
| 12> **                         ****END OF INPUT****

CARTESIAN COORDINATES (ANGSTROEM)
---------------------------------
  N     -4.737445    2.097945   -0.000000
  N      0.057505    2.031495    0.000000

 Total Charge           Charge          ....    0
 Multiplicity           Mult            ....    1
 Number of Electrons    NEL             ....   14
 Basis Dimension        Dim             ....   28

ORBITAL ENERGIES
----------------

  NO   OCC          E(Eh)            E(eV)
   0   2.0000     -14.595976      -397.1767
   1   2.0000     -14.595950      -397.1760
   2   2.0000      -0.855464       -23.2784
   3   2.0000      -0.852129       -23.1876
   4   2.0000      -0.309601        -8.4247
   5   2.0000      -0.306906        -8.3513
   6   2.0000      -0.306906        -8.3513
   7   0.0000      -0.197963        -5.3868
   8   0.0000      -0.197962        -5.3868
   9   0.0000      -0.195243        -5.3128
  10   0.0000       0.753053        20.4916
  11   0.0000       0.758334        20.6353

MULLIKEN ATOMIC CHARGES
-----------------------
   0 N :   -0.000007
   1 N :    0.000007
Sum of atomic charges:    0.0000000

LOEWDIN ATOMIC CHARGES
----------------------
   0 N :   -0.000007
   1 N :    0.000007

  Mayer bond orders larger than 0.1
B(  0-N ,  1-N ) :   3.0000

Dispersion correction           -0.000055926
FINAL SINGLE POINT ENERGY      -108.604653062790

DIPOLE MOMENT
-------------
                                X             Y             Z
Electronic contribution:      0.00007      -0.00000       0.00000
Nuclear contribution   :      0.00000      -0.00000       0.00000
                        -----------------------------------------
Total Dipole Moment    :      0.00007      -0.00000       0.00000
                        -----------------------------------------
Magnitude (a.u.)       :      0.00007
Magnitude (Debye)      :      0.00017

                             ****ORCA TERMINATED NORMALLY****
TOTAL RUN TIME: 0 days 0 hours 0 minutes 3 seconds 91 msec
