                         Program Version 4.0.0.2 - RELEASE -
|  1> ! WB97X-D3 6-31G(d) VerySlowConv
|  2> ! KDIIS NOSOSCF
|  3> %base "Scan_44"
|  4>
|  5> %scf
|  6> maxiter 999
|  7> end
|  8>
|  9> * xyz 0 1
| 10> N         -4.788578988827    2.098653754365    0.000000000000
| 11> N          0.108638988827    2.030786245635    0.000000000000
| 12> **                         ****END OF INPUT****

CARTESIAN COORDINATES (ANGSTROEM)
---------------------------------
  N     -4.788579    2.098654    0.000000
  N      0.108639    2.030786    0.000000

 Total Charge           Charge          ....    0
 Multiplicity           Mult            ....    1
 Number of Electrons    NEL             ....   14
 Basis Dimension        Dim             ....   28

ORBITAL ENERGIES
----------------

  NO   OCC          E(Eh)            E(eV)
   0   2.0000     -14.595715      -397.1696
   1   2.0000     -14.595694      -397.1690
   2   2.0000      -0.855247       -23.2725
   3   2.0000      -0.852111       -23.1871
   4   2.0000      -0.308159        -8.3854
   5   2.0000      -0.305692        -8.3183
   6   2.0000      -0.305691        -8.3183
   7   0.0000      -0.198960        -5.4140
   8   0.0000      -0.198960        -5.4140
   9   0.0000      -0.196511        -5.3473
  10   0.0000       0.754562        20.5327
  11   0.0000       0.758532        20.6407

MULLIKEN ATOMIC CHARGES
-----------------------
   0 N :   -0.000000
   1 N :    0.000000
Sum of atomic charges:    0.0000000

LOEWDIN ATOMIC CHARGES
----------------------
   0 N :   -0.000000
   1 N :    0.000000

  Mayer bond orders larger than 0.1
B(  0-N ,  1-N ) :   3.0000

Dispersion correction           -0.000049228
FINAL SINGLE POINT ENERGY      -108.600884712904

DIPOLE MOMENT
-------------
                                X             Y             Z
Electronic contribution:      0.00000       0.00000      -0.00000
Nuclear contribution   :      0.00000      -0.00000       0.00000
                        -----------------------------------------
Total Dipole Moment    :      0.00000       0.00000      -0.00000
                        -----------------------------------------
Magnitude (a.u.)       :      0.00000
Magnitude (Debye)      :      0.00000

                             ****ORCA TERMINATED NORMALLY****
TOTAL RUN TIME: 0 days 0 hours 0 minutes 2 seconds 970 msec
