                         Program Version 4.0.0.2 - RELEASE -
|  1> ! WB97X-D3 6-31G(d) VerySlowConv
|  2> ! KDIIS NOSOSCF
|  3> %base "Scan_45"
|  4>
|  5> %scf
|  6> maxiter 999
|  7> end
|  8>
|  9> * xyz 0 1
| 10> N         -4.839712550863    2.099362382710    0.000000000000
| 11> N          0.159772550863    2.030077617290    0.000000000000
| 12> **                         ****END OF INPUT****

CARTESIAN COORDINATES (ANGSTROEM)
---------------------------------
  N     -4.839713    2.099362    0.000000
  N      0.159773    2.030078    0.000000

 Total Charge           Charge          ....    0
 Multiplicity           Mult            ....    1
 Number of Electrons    NEL             ....   14
 Basis Dimension        Dim             ....   28

ORBITAL ENERGIES
----------------

  NO   OCC          E(Eh)            E(eV)
   0   2.0000     -14.595528      -397.1645
   1   2.0000     -14.595507      -397.1639
   2   2.0000      -0.855065       -23.2675
   3   2.0000      -0.852112       -23.1872
   4   2.0000      -0.306816        -8.3489
   5   2.0000      -0.304550        -8.2872
   6   2.0000      -0.304548        -8.2872
   7   0.0000      -0.199943        -5.4407
   8   0.0000      -0.199943        -5.4407
   9   0.0000      -0.197722        -5.3803
  10   0.0000       0.755741        20.5647
  11   0.0000       0.758675        20.6446

MULLIKEN ATOMIC CHARGES
-----------------------
   0 N :   -0.000000
   1 N :    0.000000
Sum of atomic charges:    0.0000000

LOEWDIN ATOMIC CHARGES
----------------------
   0 N :   -0.000000
   1 N :    0.000000

  Mayer bond orders larger than 0.1
B(  0-N ,  1-N ) :   3.0000

Dispersion correction           -0.000043379
FINAL SINGLE POINT ENERGY      -108.597325662403

DIPOLE MOMENT
-------------
                                X             Y             Z
Electronic contribution:      0.00000       0.00000       0.00000
Nuclear contribution   :      0.00000      -0.00000       0.00000
                        -----------------------------------------
Total Dipole Moment    :      0.00000       0.00000       0.00000
                        -----------------------------------------
Magnitude (a.u.)       :      0.00000
Magnitude (Debye)      :      0.00000

                             ****ORCA TERMINATED NORMALLY****
TOTAL RUN TIME: 0 days 0 hours 0 minutes 3 seconds 895 msec
