                         Program Version 4.0.0.2 - RELEASE -
|  1> ! WB97X-D3 6-31G(d) VerySlowConv
|  2> ! KDIIS NOSOSCF
|  3> %base "Scan_5"
|  4>
|  5> %scf
|  6> maxiter 999
|  7> end
|  8>
|  9> * xyz 0 1
| 10> N         -2.869074751694    2.072052534821    0.000000000000
| 11> N         -1.810865248306    2.057387465179   -0.000000000000
| 12> **                         ****END OF INPUT****

CARTESIAN COORDINATES (ANGSTROEM)
---------------------------------
  N     -2.869075    2.072053    0.000000
  N     -1.810865    2.057387   -0.000000

 Total Charge           Charge          ....    0
 Multiplicity           Mult            ....    1
 Number of Electrons    NEL             ....   14
 Basis Dimension        Dim             ....   28

ORBITAL ENERGIES
----------------

  NO   OCC          E(Eh)            E(eV)
   0   2.0000     -14.532519      -395.4499
   1   2.0000     -14.530240      -395.3879
   2   2.0000      -1.265268       -34.4297
   3   2.0000      -0.644787       -17.5455
   4   2.0000      -0.576631       -15.6909
   5   2.0000      -0.576627       -15.6908
   6   2.0000      -0.528460       -14.3801
   7   0.0000       0.095476         2.5980
   8   0.0000       0.095477         2.5981
   9   0.0000       0.531049        14.4506
  10   0.0000       0.685576        18.6555
  11   0.0000       0.700728        19.0678

MULLIKEN ATOMIC CHARGES
-----------------------
   0 N :    0.000000
   1 N :   -0.000000
Sum of atomic charges:    0.0000000

LOEWDIN ATOMIC CHARGES
----------------------
   0 N :   -0.000000
   1 N :    0.000000

  Mayer bond orders larger than 0.1
B(  0-N ,  1-N ) :   2.8239

Dispersion correction           -0.000000043
FINAL SINGLE POINT ENERGY      -109.483120335652

DIPOLE MOMENT
-------------
                                X             Y             Z
Electronic contribution:      0.00000      -0.00000       0.00000
Nuclear contribution   :      0.00000      -0.00000       0.00000
                        -----------------------------------------
Total Dipole Moment    :      0.00000      -0.00000       0.00000
                        -----------------------------------------
Magnitude (a.u.)       :      0.00000
Magnitude (Debye)      :      0.00000

                             ****ORCA TERMINATED NORMALLY****
TOTAL RUN TIME: 0 days 0 hours 0 minutes 3 seconds 67 msec
