                         Program Version 4.0.0.2 - RELEASE -
|  1> ! WB97X-D3 6-31G(d) VerySlowConv
|  2> ! KDIIS NOSOSCF
|  3> %base "Scan_6"
|  4>
|  5> %scf
|  6> maxiter 999
|  7> end
|  8>
|  9> * xyz 0 1
| 10> N         -2.879516163627    2.072197235878    0.000000000000
| 11> N         -1.800423836373    2.057242764122   -0.000000000000
| 12> **                         ****END OF INPUT****

CARTESIAN COORDINATES (ANGSTROEM)
---------------------------------
  N     -2.879516    2.072197    0.000000
  N     -1.800424    2.057243   -0.000000

 Total Charge           Charge          ....    0
 Multiplicity           Mult            ....    1
 Number of Electrons    NEL             ....   14
 Basis Dimension        Dim             ....   28

ORBITAL ENERGIES
----------------

  NO   OCC          E(Eh)            E(eV)
   0   2.0000     -14.537852      -395.5951
   1   2.0000     -14.535989      -395.5444
   2   2.0000      -1.253087       -34.0982
   3   2.0000      -0.650832       -17.7100
   4   2.0000      -0.569381       -15.4936
   5   2.0000      -0.569378       -15.4936
   6   2.0000      -0.527639       -14.3578
   7   0.0000       0.084734         2.3057
   8   0.0000       0.084735         2.3057
   9   0.0000       0.523444        14.2436
  10   0.0000       0.691305        18.8114
  11   0.0000       0.705100        19.1868

MULLIKEN ATOMIC CHARGES
-----------------------
   0 N :    0.000000
   1 N :   -0.000000
Sum of atomic charges:   -0.0000000

LOEWDIN ATOMIC CHARGES
----------------------
   0 N :   -0.000000
   1 N :    0.000000

  Mayer bond orders larger than 0.1
B(  0-N ,  1-N ) :   2.8235

Dispersion correction           -0.000000050
FINAL SINGLE POINT ENERGY      -109.487685299663

DIPOLE MOMENT
-------------
                                X             Y             Z
Electronic contribution:      0.00000      -0.00000      -0.00000
Nuclear contribution   :      0.00000      -0.00000       0.00000
                        -----------------------------------------
Total Dipole Moment    :      0.00000      -0.00000      -0.00000
                        -----------------------------------------
Magnitude (a.u.)       :      0.00000
Magnitude (Debye)      :      0.00000

                             ****ORCA TERMINATED NORMALLY****
TOTAL RUN TIME: 0 days 0 hours 0 minutes 9 seconds 962 msec
