                         Program Version 4.0.0.2 - RELEASE -
|  1> ! WB97X-D3 6-31G(d) VerySlowConv
|  2> ! KDIIS NOSOSCF
|  3> %base "Scan_7"
|  4>
|  5> %scf
|  6> maxiter 999
|  7> end
|  8>
|  9> * xyz 0 1
| 10> N         -2.891321827618    2.072360843258    0.000000000000
| 11> N         -1.788618172382    2.057079156742   -0.000000000000
| 12> **                         ****END OF INPUT****

CARTESIAN COORDINATES (ANGSTROEM)
---------------------------------
  N     -2.891322    2.072361    0.000000
  N     -1.788618    2.057079   -0.000000

 Total Charge           Charge          ....    0
 Multiplicity           Mult            ....    1
 Number of Electrons    NEL             ....   14
 Basis Dimension        Dim             ....   28

ORBITAL ENERGIES
----------------

  NO   OCC          E(Eh)            E(eV)
   0   2.0000     -14.543820      -395.7575
   1   2.0000     -14.542332      -395.7170
   2   2.0000      -1.239320       -33.7236
   3   2.0000      -0.657554       -17.8930
   4   2.0000      -0.561501       -15.2792
   5   2.0000      -0.561498       -15.2791
   6   2.0000      -0.526667       -14.3313
   7   0.0000       0.073044         1.9876
   8   0.0000       0.073044         1.9876
   9   0.0000       0.513484        13.9726
  10   0.0000       0.697974        18.9928
  11   0.0000       0.709741        19.3130

MULLIKEN ATOMIC CHARGES
-----------------------
   0 N :    0.000000
   1 N :   -0.000000
Sum of atomic charges:    0.0000000

LOEWDIN ATOMIC CHARGES
----------------------
   0 N :   -0.000000
   1 N :    0.000000

  Mayer bond orders larger than 0.1
B(  0-N ,  1-N ) :   2.8240

Dispersion correction           -0.000000060
FINAL SINGLE POINT ENERGY      -109.489207585613

DIPOLE MOMENT
-------------
                                X             Y             Z
Electronic contribution:      0.00000      -0.00000      -0.00000
Nuclear contribution   :      0.00000      -0.00000       0.00000
                        -----------------------------------------
Total Dipole Moment    :      0.00000      -0.00000      -0.00000
                        -----------------------------------------
Magnitude (a.u.)       :      0.00000
Magnitude (Debye)      :      0.00000

                             ****ORCA TERMINATED NORMALLY****
TOTAL RUN TIME: 0 days 0 hours 0 minutes 2 seconds 903 msec
