                         Program Version 4.0.0.2 - RELEASE -
|  1> ! WB97X-D3 6-31G(d) VerySlowConv
|  2> ! KDIIS NOSOSCF
|  3> %base "Scan_8"
|  4>
|  5> %scf
|  6> maxiter 999
|  7> end
|  8>
|  9> * xyz 0 1
| 10> N         -2.905150401880    2.072552484898   -0.000000000000
| 11> N         -1.774789598120    2.056887515102   -0.000000000000
| 12> **                         ****END OF INPUT****

CARTESIAN COORDINATES (ANGSTROEM)
---------------------------------
  N     -2.905150    2.072552   -0.000000
  N     -1.774790    2.056888   -0.000000

 Total Charge           Charge          ....    0
 Multiplicity           Mult            ....    1
 Number of Electrons    NEL             ....   14
 Basis Dimension        Dim             ....   28

ORBITAL ENERGIES
----------------

  NO   OCC          E(Eh)            E(eV)
   0   2.0000     -14.550662      -395.9436
   1   2.0000     -14.549512      -395.9124
   2   2.0000      -1.223280       -33.2872
   3   2.0000      -0.665283       -18.1033
   4   2.0000      -0.552673       -15.0390
   5   2.0000      -0.552670       -15.0389
   6   2.0000      -0.525460       -14.2985
   7   0.0000       0.059957         1.6315
   8   0.0000       0.059957         1.6315
   9   0.0000       0.499734        13.5985
  10   0.0000       0.706014        19.2116
  11   0.0000       0.714750        19.4493

MULLIKEN ATOMIC CHARGES
-----------------------
   0 N :    0.000000
   1 N :   -0.000000
Sum of atomic charges:    0.0000000

LOEWDIN ATOMIC CHARGES
----------------------
   0 N :   -0.000000
   1 N :    0.000000

  Mayer bond orders larger than 0.1
B(  0-N ,  1-N ) :   2.8256

Dispersion correction           -0.000000073
FINAL SINGLE POINT ENERGY      -109.486853055654

DIPOLE MOMENT
-------------
                                X             Y             Z
Electronic contribution:      0.00000      -0.00000      -0.00000
Nuclear contribution   :      0.00000      -0.00000       0.00000
                        -----------------------------------------
Total Dipole Moment    :      0.00000      -0.00000      -0.00000
                        -----------------------------------------
Magnitude (a.u.)       :      0.00000
Magnitude (Debye)      :      0.00000

                             ****ORCA TERMINATED NORMALLY****
TOTAL RUN TIME: 0 days 0 hours 0 minutes 3 seconds 33 msec
