                         Program Version 4.0.0.2 - RELEASE -
|  1> ! WB97X-D3 6-31G(d) VerySlowConv
|  2> ! KDIIS NOSOSCF
|  3> %base "Scan_9"
|  4>
|  5> %scf
|  6> maxiter 999
|  7> end
|  8>
|  9> * xyz 0 1
| 10> N         -2.921546433264    2.072779707335   -0.000000000000
| 11> N         -1.758393566736    2.056660292665   -0.000000000000
| 12> **                         ****END OF INPUT****

CARTESIAN COORDINATES (ANGSTROEM)
---------------------------------
  N     -2.921546    2.072780   -0.000000
  N     -1.758394    2.056660   -0.000000

 Total Charge           Charge          ....    0
 Multiplicity           Mult            ....    1
 Number of Electrons    NEL             ....   14
 Basis Dimension        Dim             ....   28

ORBITAL ENERGIES
----------------

  NO   OCC          E(Eh)            E(eV)
   0   2.0000     -14.558500      -396.1569
   1   2.0000     -14.557648      -396.1337
   2   2.0000      -1.204473       -32.7754
   3   2.0000      -0.674252       -18.3473
   4   2.0000      -0.542729       -14.7684
   5   2.0000      -0.542726       -14.7683
   6   2.0000      -0.523921       -14.2566
   7   0.0000       0.045270         1.2318
   8   0.0000       0.045270         1.2319
   9   0.0000       0.480232        13.0678
  10   0.0000       0.715808        19.4781
  11   0.0000       0.720072        19.5941

MULLIKEN ATOMIC CHARGES
-----------------------
   0 N :   -0.000000
   1 N :    0.000000
Sum of atomic charges:    0.0000000

LOEWDIN ATOMIC CHARGES
----------------------
   0 N :   -0.000000
   1 N :    0.000000

  Mayer bond orders larger than 0.1
B(  0-N ,  1-N ) :   2.8290

Dispersion correction           -0.000000091
FINAL SINGLE POINT ENERGY      -109.479323115219

DIPOLE MOMENT
-------------
                                X             Y             Z
Electronic contribution:      0.00000      -0.00000      -0.00000
Nuclear contribution   :      0.00000      -0.00000       0.00000
                        -----------------------------------------
Total Dipole Moment    :      0.00000      -0.00000      -0.00000
                        -----------------------------------------
Magnitude (a.u.)       :      0.00000
Magnitude (Debye)      :      0.00000

                             ****ORCA TERMINATED NORMALLY****
TOTAL RUN TIME: 0 days 0 hours 0 minutes 10 seconds 351 msec
