                         Program Version 4.0.0.2 - RELEASE -
|  1> ! WB97X-D3 6-31G(d) VerySlowConv
|  2> ! KDIIS NOSOSCF
|  3> %base "Scan_1"
|  4>
|  5> %scf
|  6> maxiter 999
|  7> end
|  8>
|  9> * xyz 0 1
| 10> C         -3.462609518900    0.401354661254   -0.000000000000
| 11> N         -2.447026882960    0.431364700853    0.000000000000
| 12> H         -4.530143598140    0.369810637892   -0.000000000000
| 13> **                         ****END OF INPUT****

CARTESIAN COORDINATES (ANGSTROEM)
---------------------------------
  C     -3.462610    0.401355   -0.000000
  N     -2.447027    0.431365    0.000000
  H     -4.530144    0.369811   -0.000000

 Total Charge           Charge          ....    0
 Multiplicity           Mult            ....    1
 Number of Electrons    NEL             ....   14
 Basis Dimension        Dim             ....   30

ORBITAL ENERGIES
----------------

  NO   OCC          E(Eh)            E(eV)
   0   2.0000     -14.420785      -392.4095
   1   2.0000     -10.302877      -280.3555
   2   2.0000      -1.079439       -29.3730
   3   2.0000      -0.697864       -18.9898
   4   2.0000      -0.491597       -13.3770
   5   2.0000      -0.491593       -13.3769
   6   2.0000      -0.464637       -12.6434
   7   0.0000       0.170447         4.6381
   8   0.0000       0.170457         4.6384
   9   0.0000       0.192567         5.2400
  10   0.0000       0.364202         9.9104
  11   0.0000       0.611235        16.6326

MULLIKEN ATOMIC CHARGES
-----------------------
   0 C :   -0.053036
   1 N :   -0.213962
   2 H :    0.266998
Sum of atomic charges:   -0.0000000

LOEWDIN ATOMIC CHARGES
----------------------
   0 C :   -0.146028
   1 N :   -0.029327
   2 H :    0.175355

  Mayer bond orders larger than 0.1
B(  0-C ,  1-N ) :   3.1758 B(  0-C ,  2-H ) :   0.8838

Dispersion correction           -0.000013954
FINAL SINGLE POINT ENERGY       -93.326554092676

DIPOLE MOMENT
-------------
                                X             Y             Z
Electronic contribution:      0.29929       0.00878      -0.00000
Nuclear contribution   :     -1.45508      -0.04300       0.00000
                        -----------------------------------------
Total Dipole Moment    :     -1.15580      -0.03421      -0.00000
                        -----------------------------------------
Magnitude (a.u.)       :      1.15630
Magnitude (Debye)      :      2.93909

                             ****ORCA TERMINATED NORMALLY****
TOTAL RUN TIME: 0 days 0 hours 0 minutes 4 seconds 265 msec
