                         Program Version 4.0.0.2 - RELEASE -
|  1> ! WB97X-D3 6-31G(d) VerySlowConv
|  2> ! KDIIS NOSOSCF
|  3> %base "Scan_10"
|  4>
|  5> %scf
|  6> maxiter 999
|  7> end
|  8>
|  9> * xyz 0 1
| 10> C         -3.538993949912    0.399097945536    0.000000000000
| 11> N         -2.307571074843    0.435485269806    0.000000000000
| 12> H         -4.593214975245    0.367946784658    0.000000000000
| 13> **                         ****END OF INPUT****

CARTESIAN COORDINATES (ANGSTROEM)
---------------------------------
  C     -3.538994    0.399098    0.000000
  N     -2.307571    0.435485    0.000000
  H     -4.593215    0.367947    0.000000

 Total Charge           Charge          ....    0
 Multiplicity           Mult            ....    1
 Number of Electrons    NEL             ....   14
 Basis Dimension        Dim             ....   30

ORBITAL ENERGIES
----------------

  NO   OCC          E(Eh)            E(eV)
   0   2.0000     -14.482926      -394.1004
   1   2.0000     -10.359996      -281.9098
   2   2.0000      -1.007419       -27.4133
   3   2.0000      -0.724059       -19.7027
   4   2.0000      -0.485929       -13.2228
   5   2.0000      -0.439708       -11.9651
   6   2.0000      -0.439704       -11.9649
   7   0.0000       0.085004         2.3131
   8   0.0000       0.085016         2.3134
   9   0.0000       0.177368         4.8264
  10   0.0000       0.372445        10.1348
  11   0.0000       0.629093        17.1185

MULLIKEN ATOMIC CHARGES
-----------------------
   0 C :    0.001155
   1 N :   -0.281537
   2 H :    0.280382
Sum of atomic charges:   -0.0000000

LOEWDIN ATOMIC CHARGES
----------------------
   0 C :   -0.096957
   1 N :   -0.084221
   2 H :    0.181177

  Mayer bond orders larger than 0.1
B(  0-C ,  1-N ) :   2.9398 B(  0-C ,  2-H ) :   0.8726

Dispersion correction           -0.000028877
FINAL SINGLE POINT ENERGY       -93.375529868114

DIPOLE MOMENT
-------------
                                X             Y             Z
Electronic contribution:      0.37836       0.01114       0.00000
Nuclear contribution   :     -1.54744      -0.04573       0.00000
                        -----------------------------------------
Total Dipole Moment    :     -1.16907      -0.03458       0.00000
                        -----------------------------------------
Magnitude (a.u.)       :      1.16958
Magnitude (Debye)      :      2.97285

                             ****ORCA TERMINATED NORMALLY****
TOTAL RUN TIME: 0 days 0 hours 0 minutes 4 seconds 18 msec
