                         Program Version 4.0.0.2 - RELEASE -
|  1> ! WB97X-D3 6-31G(d) VerySlowConv
|  2> ! KDIIS NOSOSCF
|  3> %base "Scan_11"
|  4>
|  5> %scf
|  6> maxiter 999
|  7> end
|  8>
|  9> * xyz 0 1
| 10> C         -3.555392731924    0.398613380886    0.000000000000
| 11> N         -2.275845410204    0.436422730975    0.000000000000
| 12> H         -4.608541857872    0.367493888139    0.000000000000
| 13> **                         ****END OF INPUT****

CARTESIAN COORDINATES (ANGSTROEM)
---------------------------------
  C     -3.555393    0.398613    0.000000
  N     -2.275845    0.436423    0.000000
  H     -4.608542    0.367494    0.000000

 Total Charge           Charge          ....    0
 Multiplicity           Mult            ....    1
 Number of Electrons    NEL             ....   14
 Basis Dimension        Dim             ....   30

ORBITAL ENERGIES
----------------

  NO   OCC          E(Eh)            E(eV)
   0   2.0000     -14.494611      -394.4184
   1   2.0000     -10.371414      -282.2205
   2   2.0000      -0.991108       -26.9694
   3   2.0000      -0.728843       -19.8328
   4   2.0000      -0.488912       -13.3040
   5   2.0000      -0.430465       -11.7135
   6   2.0000      -0.430461       -11.7134
   7   0.0000       0.068923         1.8755
   8   0.0000       0.068935         1.8758
   9   0.0000       0.171804         4.6750
  10   0.0000       0.369315        10.0496
  11   0.0000       0.631695        17.1893

MULLIKEN ATOMIC CHARGES
-----------------------
   0 C :   -0.001518
   1 N :   -0.280465
   2 H :    0.281983
Sum of atomic charges:   -0.0000000

LOEWDIN ATOMIC CHARGES
----------------------
   0 C :   -0.087362
   1 N :   -0.095125
   2 H :    0.182487

  Mayer bond orders larger than 0.1
B(  0-C ,  1-N ) :   2.9164 B(  0-C ,  2-H ) :   0.8693

Dispersion correction           -0.000033750
FINAL SINGLE POINT ENERGY       -93.358262724408

DIPOLE MOMENT
-------------
                                X             Y             Z
Electronic contribution:      0.40112       0.01183       0.00000
Nuclear contribution   :     -1.56974      -0.04638       0.00000
                        -----------------------------------------
Total Dipole Moment    :     -1.16862      -0.03456       0.00000
                        -----------------------------------------
Magnitude (a.u.)       :      1.16913
Magnitude (Debye)      :      2.97170

                             ****ORCA TERMINATED NORMALLY****
TOTAL RUN TIME: 0 days 0 hours 0 minutes 4 seconds 45 msec
