                         Program Version 4.0.0.2 - RELEASE -
|  1> ! WB97X-D3 6-31G(d) VerySlowConv
|  2> ! KDIIS NOSOSCF
|  3> %base "Scan_12"
|  4>
|  5> %scf
|  6> maxiter 999
|  7> end
|  8>
|  9> * xyz 0 1
| 10> C         -3.576055851090    0.398002808077    0.000000000000
| 11> N         -2.235363474427    0.437618931663    0.000000000000
| 12> H         -4.628360674483    0.366908260259    0.000000000000
| 13> **                         ****END OF INPUT****

CARTESIAN COORDINATES (ANGSTROEM)
---------------------------------
  C     -3.576056    0.398003    0.000000
  N     -2.235363    0.437619    0.000000
  H     -4.628361    0.366908    0.000000

 Total Charge           Charge          ....    0
 Multiplicity           Mult            ....    1
 Number of Electrons    NEL             ....   14
 Basis Dimension        Dim             ....   30

ORBITAL ENERGIES
----------------

  NO   OCC          E(Eh)            E(eV)
   0   2.0000     -14.507923      -394.7807
   1   2.0000     -10.384757      -282.5836
   2   2.0000      -0.971328       -26.4312
   3   2.0000      -0.734573       -19.9887
   4   2.0000      -0.491785       -13.3821
   5   2.0000      -0.419615       -11.4183
   6   2.0000      -0.419614       -11.4183
   7   0.0000       0.050090         1.3630
   8   0.0000       0.050103         1.3634
   9   0.0000       0.163185         4.4405
  10   0.0000       0.360338         9.8053
  11   0.0000       0.634225        17.2581

MULLIKEN ATOMIC CHARGES
-----------------------
   0 C :   -0.010182
   1 N :   -0.273561
   2 H :    0.283743
Sum of atomic charges:   -0.0000000

LOEWDIN ATOMIC CHARGES
----------------------
   0 C :   -0.076344
   1 N :   -0.107680
   2 H :    0.184024

  Mayer bond orders larger than 0.1
B(  0-C ,  1-N ) :   2.8984 B(  0-C ,  2-H ) :   0.8648

Dispersion correction           -0.000040872
FINAL SINGLE POINT ENERGY       -93.329708139676

DIPOLE MOMENT
-------------
                                X             Y             Z
Electronic contribution:      0.43147       0.01273       0.00000
Nuclear contribution   :     -1.59855      -0.04724       0.00000
                        -----------------------------------------
Total Dipole Moment    :     -1.16708      -0.03450       0.00000
                        -----------------------------------------
Magnitude (a.u.)       :      1.16759
Magnitude (Debye)      :      2.96778

                             ****ORCA TERMINATED NORMALLY****
TOTAL RUN TIME: 0 days 0 hours 0 minutes 4 seconds 84 msec
