                         Program Version 4.0.0.2 - RELEASE -
|  1> ! WB97X-D3 6-31G(d) VerySlowConv
|  2> ! KDIIS NOSOSCF
|  3> %base "Scan_13"
|  4>
|  5> %scf
|  6> maxiter 999
|  7> end
|  8>
|  9> * xyz 0 1
| 10> C         -3.603470476354    0.397192734029   -0.000000000000
| 11> N         -2.180739137898    0.439233026367    0.000000000000
| 12> H         -4.655570385747    0.366104239604    0.000000000000
| 13> **                         ****END OF INPUT****

CARTESIAN COORDINATES (ANGSTROEM)
---------------------------------
  C     -3.603470    0.397193   -0.000000
  N     -2.180739    0.439233    0.000000
  H     -4.655570    0.366104    0.000000

 Total Charge           Charge          ....    0
 Multiplicity           Mult            ....    1
 Number of Electrons    NEL             ....   14
 Basis Dimension        Dim             ....   30

ORBITAL ENERGIES
----------------

  NO   OCC          E(Eh)            E(eV)
   0   2.0000     -14.523194      -395.1962
   1   2.0000     -10.400537      -283.0130
   2   2.0000      -0.946778       -25.7631
   3   2.0000      -0.741643       -20.1811
   4   2.0000      -0.493952       -13.4411
   5   2.0000      -0.406431       -11.0596
   6   2.0000      -0.406431       -11.0596
   7   0.0000       0.027538         0.7494
   8   0.0000       0.027551         0.7497
   9   0.0000       0.148295         4.0353
  10   0.0000       0.340388         9.2624
  11   0.0000       0.636265        17.3137

MULLIKEN ATOMIC CHARGES
-----------------------
   0 C :   -0.027888
   1 N :   -0.257840
   2 H :    0.285729
Sum of atomic charges:   -0.0000000

LOEWDIN ATOMIC CHARGES
----------------------
   0 C :   -0.063967
   1 N :   -0.121795
   2 H :    0.185762

  Mayer bond orders larger than 0.1
B(  0-C ,  1-N ) :   2.8873 B(  0-C ,  2-H ) :   0.8584

Dispersion correction           -0.000052090
FINAL SINGLE POINT ENERGY       -93.284524030504

DIPOLE MOMENT
-------------
                                X             Y             Z
Electronic contribution:      0.47408       0.01402       0.00000
Nuclear contribution   :     -1.63803      -0.04840       0.00000
                        -----------------------------------------
Total Dipole Moment    :     -1.16396      -0.03438       0.00000
                        -----------------------------------------
Magnitude (a.u.)       :      1.16447
Magnitude (Debye)      :      2.95984

                             ****ORCA TERMINATED NORMALLY****
TOTAL RUN TIME: 0 days 0 hours 0 minutes 4 seconds 4 msec
