                         Program Version 4.0.0.2 - RELEASE -
|  1> ! WB97X-D3 6-31G(d) VerySlowConv
|  2> ! KDIIS NOSOSCF
|  3> %base "Scan_14"
|  4>
|  5> %scf
|  6> maxiter 999
|  7> end
|  8>
|  9> * xyz 0 1
| 10> C         -3.641550751468    0.396067499975   -0.000000000000
| 11> N         -2.103612641469    0.441512037468    0.000000000000
| 12> H         -4.694616607063    0.364950462558    0.000000000000
| 13> **                         ****END OF INPUT****

CARTESIAN COORDINATES (ANGSTROEM)
---------------------------------
  C     -3.641551    0.396067   -0.000000
  N     -2.103613    0.441512    0.000000
  H     -4.694617    0.364950    0.000000

 Total Charge           Charge          ....    0
 Multiplicity           Mult            ....    1
 Number of Electrons    NEL             ....   14
 Basis Dimension        Dim             ....   30

ORBITAL ENERGIES
----------------

  NO   OCC          E(Eh)            E(eV)
   0   2.0000     -14.539798      -395.6480
   1   2.0000     -10.418648      -283.5058
   2   2.0000      -0.916729       -24.9455
   3   2.0000      -0.750561       -20.4238
   4   2.0000      -0.493716       -13.4347
   5   2.0000      -0.390153       -10.6166
   6   2.0000      -0.390153       -10.6166
   7   0.0000       0.000716         0.0195
   8   0.0000       0.000728         0.0198
   9   0.0000       0.120254         3.2723
  10   0.0000       0.306584         8.3426
  11   0.0000       0.636651        17.3242

MULLIKEN ATOMIC CHARGES
-----------------------
   0 C :   -0.057038
   1 N :   -0.230313
   2 H :    0.287351
Sum of atomic charges:   -0.0000000

LOEWDIN ATOMIC CHARGES
----------------------
   0 C :   -0.051169
   1 N :   -0.136020
   2 H :    0.187189

  Mayer bond orders larger than 0.1
B(  0-C ,  1-N ) :   2.8778 B(  0-C ,  2-H ) :   0.8491

Dispersion correction           -0.000070438
FINAL SINGLE POINT ENERGY       -93.215992718558

DIPOLE MOMENT
-------------
                                X             Y             Z
Electronic contribution:      0.53551       0.01589       0.00000
Nuclear contribution   :     -1.69462      -0.05007       0.00000
                        -----------------------------------------
Total Dipole Moment    :     -1.15911      -0.03418       0.00000
                        -----------------------------------------
Magnitude (a.u.)       :      1.15961
Magnitude (Debye)      :      2.94750

                             ****ORCA TERMINATED NORMALLY****
TOTAL RUN TIME: 0 days 0 hours 0 minutes 4 seconds 92 msec
