                         Program Version 4.0.0.2 - RELEASE -
|  1> ! WB97X-D3 6-31G(d) VerySlowConv
|  2> ! KDIIS NOSOSCF
|  3> %base "Scan_15"
|  4>
|  5> %scf
|  6> maxiter 999
|  7> end
|  8>
|  9> * xyz 0 1
| 10> C         -3.691850272680    0.394581198802    0.000000000000
| 11> N         -2.001201067631    0.444538197294    0.000000000000
| 12> H         -4.746728659690    0.363410603904    0.000000000000
| 13> **                         ****END OF INPUT****

CARTESIAN COORDINATES (ANGSTROEM)
---------------------------------
  C     -3.691850    0.394581    0.000000
  N     -2.001201    0.444538    0.000000
  H     -4.746729    0.363411    0.000000

 Total Charge           Charge          ....    0
 Multiplicity           Mult            ....    1
 Number of Electrons    NEL             ....   14
 Basis Dimension        Dim             ....   30

ORBITAL ENERGIES
----------------

  NO   OCC          E(Eh)            E(eV)
   0   2.0000     -14.554037      -396.0355
   1   2.0000     -10.435973      -283.9773
   2   2.0000      -0.884972       -24.0813
   3   2.0000      -0.761049       -20.7092
   4   2.0000      -0.488341       -13.2884
   5   2.0000      -0.371721       -10.1150
   6   2.0000      -0.371720       -10.1150
   7   0.0000      -0.027293        -0.7427
   8   0.0000      -0.027282        -0.7424
   9   0.0000       0.074891         2.0379
  10   0.0000       0.271459         7.3868
  11   0.0000       0.633529        17.2392

MULLIKEN ATOMIC CHARGES
-----------------------
   0 C :   -0.094044
   1 N :   -0.191770
   2 H :    0.285814
Sum of atomic charges:   -0.0000000

LOEWDIN ATOMIC CHARGES
----------------------
   0 C :   -0.041064
   1 N :   -0.145226
   2 H :    0.186290

  Mayer bond orders larger than 0.1
B(  0-C ,  1-N ) :   2.8426 B(  0-C ,  2-H ) :   0.8386

Dispersion correction           -0.000095089
FINAL SINGLE POINT ENERGY       -93.127307564869

DIPOLE MOMENT
-------------
                                X             Y             Z
Electronic contribution:      0.61349       0.01823       0.00000
Nuclear contribution   :     -1.77010      -0.05230       0.00000
                        -----------------------------------------
Total Dipole Moment    :     -1.15662      -0.03407       0.00000
                        -----------------------------------------
Magnitude (a.u.)       :      1.15712
Magnitude (Debye)      :      2.94116

                             ****ORCA TERMINATED NORMALLY****
TOTAL RUN TIME: 0 days 0 hours 0 minutes 4 seconds 303 msec
