                         Program Version 4.0.0.2 - RELEASE -
|  1> ! WB97X-D3 6-31G(d) VerySlowConv
|  2> ! KDIIS NOSOSCF
|  3> %base "Scan_16"
|  4>
|  5> %scf
|  6> maxiter 999
|  7> end
|  8>
|  9> * xyz 0 1
| 10> C         -3.744082264352    0.393037793394    0.000000000000
| 11> N         -1.891758125330    0.447772126374    0.000000000000
| 12> H         -4.803939610318    0.361720080232   -0.000000000000
| 13> **                         ****END OF INPUT****

CARTESIAN COORDINATES (ANGSTROEM)
---------------------------------
  C     -3.744082    0.393038    0.000000
  N     -1.891758    0.447772    0.000000
  H     -4.803940    0.361720   -0.000000

 Total Charge           Charge          ....    0
 Multiplicity           Mult            ....    1
 Number of Electrons    NEL             ....   14
 Basis Dimension        Dim             ....   30

ORBITAL ENERGIES
----------------

  NO   OCC          E(Eh)            E(eV)
   0   2.0000     -14.560070      -396.1997
   1   2.0000     -10.448198      -284.3099
   2   2.0000      -0.859548       -23.3895
   3   2.0000      -0.769710       -20.9449
   4   2.0000      -0.477982       -13.0066
   5   2.0000      -0.355122        -9.6634
   6   2.0000      -0.355119        -9.6633
   7   0.0000      -0.049254        -1.3403
   8   0.0000      -0.049243        -1.3400
   9   0.0000       0.028656         0.7798
  10   0.0000       0.248959         6.7745
  11   0.0000       0.627416        17.0728

MULLIKEN ATOMIC CHARGES
-----------------------
   0 C :   -0.120807
   1 N :   -0.157414
   2 H :    0.278222
Sum of atomic charges:   -0.0000000

LOEWDIN ATOMIC CHARGES
----------------------
   0 C :   -0.034868
   1 N :   -0.146691
   2 H :    0.181559

  Mayer bond orders larger than 0.1
B(  0-C ,  1-N ) :   2.7392 B(  0-C ,  2-H ) :   0.8315

Dispersion correction           -0.000113649
FINAL SINGLE POINT ENERGY       -93.044539517031

DIPOLE MOMENT
-------------
                                X             Y             Z
Electronic contribution:      0.68731       0.02042      -0.00000
Nuclear contribution   :     -1.85278      -0.05475       0.00000
                        -----------------------------------------
Total Dipole Moment    :     -1.16547      -0.03432      -0.00000
                        -----------------------------------------
Magnitude (a.u.)       :      1.16598
Magnitude (Debye)      :      2.96368

                             ****ORCA TERMINATED NORMALLY****
TOTAL RUN TIME: 0 days 0 hours 0 minutes 5 seconds 291 msec
