                         Program Version 4.0.0.2 - RELEASE -
|  1> ! WB97X-D3 6-31G(d) VerySlowConv
|  2> ! KDIIS NOSOSCF
|  3> %base "Scan_17"
|  4>
|  5> %scf
|  6> maxiter 999
|  7> end
|  8>
|  9> * xyz 0 1
| 10> C         -3.791960374882    0.391623036509    0.000000000000
| 11> N         -1.790368273464    0.450768092139    0.000000000000
| 12> H         -4.857451351654    0.360138871352   -0.000000000000
| 13> **                         ****END OF INPUT****

CARTESIAN COORDINATES (ANGSTROEM)
---------------------------------
  C     -3.791960    0.391623    0.000000
  N     -1.790368    0.450768    0.000000
  H     -4.857451    0.360139   -0.000000

 Total Charge           Charge          ....    0
 Multiplicity           Mult            ....    1
 Number of Electrons    NEL             ....   14
 Basis Dimension        Dim             ....   30

ORBITAL ENERGIES
----------------

  NO   OCC          E(Eh)            E(eV)
   0   2.0000     -14.558548      -396.1582
   1   2.0000     -10.454663      -284.4858
   2   2.0000      -0.841179       -22.8896
   3   2.0000      -0.775616       -21.1056
   4   2.0000      -0.467331       -12.7167
   5   2.0000      -0.341824        -9.3015
   6   2.0000      -0.341821        -9.3014
   7   0.0000      -0.063933        -1.7397
   8   0.0000      -0.063920        -1.7394
   9   0.0000      -0.002775        -0.0755
  10   0.0000       0.235447         6.4068
  11   0.0000       0.621263        16.9054

MULLIKEN ATOMIC CHARGES
-----------------------
   0 C :   -0.128879
   1 N :   -0.135167
   2 H :    0.264046
Sum of atomic charges:   -0.0000000

LOEWDIN ATOMIC CHARGES
----------------------
   0 C :   -0.028123
   1 N :   -0.144240
   2 H :    0.172363

  Mayer bond orders larger than 0.1
B(  0-C ,  1-N ) :   2.5457 B(  0-C ,  2-H ) :   0.8320

Dispersion correction           -0.000123137
FINAL SINGLE POINT ENERGY       -92.981719051369

DIPOLE MOMENT
-------------
                                X             Y             Z
Electronic contribution:      0.74068       0.02201      -0.00000
Nuclear contribution   :     -1.93005      -0.05703       0.00000
                        -----------------------------------------
Total Dipole Moment    :     -1.18937      -0.03502      -0.00000
                        -----------------------------------------
Magnitude (a.u.)       :      1.18989
Magnitude (Debye)      :      3.02446

                             ****ORCA TERMINATED NORMALLY****
TOTAL RUN TIME: 0 days 0 hours 0 minutes 5 seconds 647 msec
