                         Program Version 4.0.0.2 - RELEASE -
|  1> ! WB97X-D3 6-31G(d) VerySlowConv
|  2> ! KDIIS NOSOSCF
|  3> %base "Scan_18"
|  4>
|  5> %scf
|  6> maxiter 999
|  7> end
|  8>
|  9> * xyz 0 1
| 10> C         -3.836885742292    0.390295514599    0.000000000000
| 11> N         -1.690604936112    0.453715985181    0.000000000000
| 12> H         -4.912289321597    0.358518500220    0.000000000000
| 13> **                         ****END OF INPUT****

CARTESIAN COORDINATES (ANGSTROEM)
---------------------------------
  C     -3.836886    0.390296    0.000000
  N     -1.690605    0.453716    0.000000
  H     -4.912289    0.358519    0.000000

 Total Charge           Charge          ....    0
 Multiplicity           Mult            ....    1
 Number of Electrons    NEL             ....   14
 Basis Dimension        Dim             ....   30

ORBITAL ENERGIES
----------------

  NO   OCC          E(Eh)            E(eV)
   0   2.0000     -14.551373      -395.9630
   1   2.0000     -10.458721      -284.5963
   2   2.0000      -0.826617       -22.4934
   3   2.0000      -0.778624       -21.1874
   4   2.0000      -0.458800       -12.4846
   5   2.0000      -0.330423        -8.9913
   6   2.0000      -0.330422        -8.9913
   7   0.0000      -0.074310        -2.0221
   8   0.0000      -0.074293        -2.0216
   9   0.0000      -0.021430        -0.5831
  10   0.0000       0.224603         6.1118
  11   0.0000       0.615788        16.7564

MULLIKEN ATOMIC CHARGES
-----------------------
   0 C :   -0.118500
   1 N :   -0.126867
   2 H :    0.245367
Sum of atomic charges:   -0.0000000

LOEWDIN ATOMIC CHARGES
----------------------
   0 C :   -0.017726
   1 N :   -0.143147
   2 H :    0.160873

  Mayer bond orders larger than 0.1
B(  0-C ,  1-N ) :   2.2686 B(  0-C ,  2-H ) :   0.8397

Dispersion correction           -0.000124736
FINAL SINGLE POINT ENERGY       -92.934234469724

DIPOLE MOMENT
-------------
                                X             Y             Z
Electronic contribution:      0.77737       0.02322       0.00000
Nuclear contribution   :     -2.00897      -0.05936       0.00000
                        -----------------------------------------
Total Dipole Moment    :     -1.23160      -0.03615       0.00000
                        -----------------------------------------
Magnitude (a.u.)       :      1.23213
Magnitude (Debye)      :      3.13184

                             ****ORCA TERMINATED NORMALLY****
TOTAL RUN TIME: 0 days 0 hours 0 minutes 6 seconds 353 msec
