                         Program Version 4.0.0.2 - RELEASE -
|  1> ! WB97X-D3 6-31G(d) VerySlowConv
|  2> ! KDIIS NOSOSCF
|  3> %base "Scan_19"
|  4>
|  5> %scf
|  6> maxiter 999
|  7> end
|  8>
|  9> * xyz 0 1
| 10> C         -3.878945308135    0.389052568924    0.000000000000
| 11> N         -1.593234865669    0.456593077284    0.000000000000
| 12> H         -4.967599826197    0.356884353792    0.000000000000
| 13> **                         ****END OF INPUT****

CARTESIAN COORDINATES (ANGSTROEM)
---------------------------------
  C     -3.878945    0.389053    0.000000
  N     -1.593235    0.456593    0.000000
  H     -4.967600    0.356884    0.000000

 Total Charge           Charge          ....    0
 Multiplicity           Mult            ....    1
 Number of Electrons    NEL             ....   14
 Basis Dimension        Dim             ....   30

ORBITAL ENERGIES
----------------

  NO   OCC          E(Eh)            E(eV)
   0   2.0000     -14.541365      -395.6907
   1   2.0000     -10.462205      -284.6911
   2   2.0000      -0.815230       -22.1835
   3   2.0000      -0.779197       -21.2030
   4   2.0000      -0.454309       -12.3624
   5   2.0000      -0.320710        -8.7270
   6   2.0000      -0.320692        -8.7265
   7   0.0000      -0.082048        -2.2326
   8   0.0000      -0.082008        -2.2316
   9   0.0000      -0.029929        -0.8144
  10   0.0000       0.214483         5.8364
  11   0.0000       0.611114        16.6293

MULLIKEN ATOMIC CHARGES
-----------------------
   0 C :   -0.096196
   1 N :   -0.130520
   2 H :    0.226716
Sum of atomic charges:   -0.0000000

LOEWDIN ATOMIC CHARGES
----------------------
   0 C :   -0.004165
   1 N :   -0.146106
   2 H :    0.150271

  Mayer bond orders larger than 0.1
B(  0-C ,  1-N ) :   1.9789 B(  0-C ,  2-H ) :   0.8525

Dispersion correction           -0.000124595
FINAL SINGLE POINT ENERGY       -92.899687773143

DIPOLE MOMENT
-------------
                                X             Y             Z
Electronic contribution:      0.79576       0.02313       0.00000
Nuclear contribution   :     -2.08837      -0.06171       0.00000
                        -----------------------------------------
Total Dipole Moment    :     -1.29261      -0.03858       0.00000
                        -----------------------------------------
Magnitude (a.u.)       :      1.29318
Magnitude (Debye)      :      3.28701

                             ****ORCA TERMINATED NORMALLY****
TOTAL RUN TIME: 0 days 0 hours 0 minutes 7 seconds 369 msec
