                         Program Version 4.0.0.2 - RELEASE -
|  1> ! WB97X-D3 6-31G(d) VerySlowConv
|  2> ! KDIIS NOSOSCF
|  3> %base "Scan_2"
|  4>
|  5> %scf
|  6> maxiter 999
|  7> end
|  8>
|  9> * xyz 0 1
| 10> C         -3.468072359112    0.401193333004   -0.000000000000
| 11> N         -2.437573597023    0.431643975669    0.000000000000
| 12> H         -4.534134043865    0.369692691327   -0.000000000000
| 13> **                         ****END OF INPUT****

CARTESIAN COORDINATES (ANGSTROEM)
---------------------------------
  C     -3.468072    0.401193   -0.000000
  N     -2.437574    0.431644    0.000000
  H     -4.534134    0.369693   -0.000000

 Total Charge           Charge          ....    0
 Multiplicity           Mult            ....    1
 Number of Electrons    NEL             ....   14
 Basis Dimension        Dim             ....   30

ORBITAL ENERGIES
----------------

  NO   OCC          E(Eh)            E(eV)
   0   2.0000     -14.425261      -392.5313
   1   2.0000     -10.306815      -280.4627
   2   2.0000      -1.075101       -29.2550
   3   2.0000      -0.699962       -19.0469
   4   2.0000      -0.487327       -13.2608
   5   2.0000      -0.487322       -13.2607
   6   2.0000      -0.466551       -12.6955
   7   0.0000       0.163920         4.4605
   8   0.0000       0.163930         4.4608
   9   0.0000       0.191911         5.2222
  10   0.0000       0.364961         9.9311
  11   0.0000       0.612724        16.6731

MULLIKEN ATOMIC CHARGES
-----------------------
   0 C :   -0.045244
   1 N :   -0.223180
   2 H :    0.268424
Sum of atomic charges:   -0.0000000

LOEWDIN ATOMIC CHARGES
----------------------
   0 C :   -0.142477
   1 N :   -0.033230
   2 H :    0.175707

  Mayer bond orders larger than 0.1
B(  0-C ,  1-N ) :   3.1536 B(  0-C ,  2-H ) :   0.8832

Dispersion correction           -0.000014682
FINAL SINGLE POINT ENERGY       -93.340868952898

DIPOLE MOMENT
-------------
                                X             Y             Z
Electronic contribution:      0.30320       0.00890      -0.00000
Nuclear contribution   :     -1.46096      -0.04317       0.00000
                        -----------------------------------------
Total Dipole Moment    :     -1.15776      -0.03427      -0.00000
                        -----------------------------------------
Magnitude (a.u.)       :      1.15827
Magnitude (Debye)      :      2.94409

                             ****ORCA TERMINATED NORMALLY****
TOTAL RUN TIME: 0 days 0 hours 0 minutes 4 seconds 992 msec
