                         Program Version 4.0.0.2 - RELEASE -
|  1> ! WB97X-D3 6-31G(d) VerySlowConv
|  2> ! KDIIS NOSOSCF
|  3> %base "Scan_20"
|  4>
|  5> %scf
|  6> maxiter 999
|  7> end
|  8>
|  9> * xyz 0 1
| 10> C         -3.917470704650    0.387913837479    0.000000000000
| 11> N         -1.506752414578    0.459148269457    0.000000000000
| 12> H         -5.015556880773    0.355467893065    0.000000000000
| 13> **                         ****END OF INPUT****

CARTESIAN COORDINATES (ANGSTROEM)
---------------------------------
  C     -3.917471    0.387914    0.000000
  N     -1.506752    0.459148    0.000000
  H     -5.015557    0.355468    0.000000

 Total Charge           Charge          ....    0
 Multiplicity           Mult            ....    1
 Number of Electrons    NEL             ....   14
 Basis Dimension        Dim             ....   30

ORBITAL ENERGIES
----------------

  NO   OCC          E(Eh)            E(eV)
   0   2.0000     -14.531976      -395.4352
   1   2.0000     -10.465352      -284.7767
   2   2.0000      -0.807984       -21.9864
   3   2.0000      -0.778642       -21.1879
   4   2.0000      -0.453316       -12.3354
   5   2.0000      -0.312924        -8.5151
   6   2.0000      -0.312909        -8.5147
   7   0.0000      -0.087959        -2.3935
   8   0.0000      -0.087927        -2.3926
   9   0.0000      -0.032489        -0.8841
  10   0.0000       0.206654         5.6233
  11   0.0000       0.607507        16.5311

MULLIKEN ATOMIC CHARGES
-----------------------
   0 C :   -0.073544
   1 N :   -0.140129
   2 H :    0.213673
Sum of atomic charges:    0.0000000

LOEWDIN ATOMIC CHARGES
----------------------
   0 C :    0.009120
   1 N :   -0.152260
   2 H :    0.143140

  Mayer bond orders larger than 0.1
B(  0-C ,  1-N ) :   1.7655 B(  0-C ,  2-H ) :   0.8641

Dispersion correction           -0.000126245
FINAL SINGLE POINT ENERGY       -92.875964967092

DIPOLE MOMENT
-------------
                                X             Y             Z
Electronic contribution:      0.79348       0.02359       0.00000
Nuclear contribution   :     -2.15733      -0.06375       0.00000
                        -----------------------------------------
Total Dipole Moment    :     -1.36385      -0.04016       0.00000
                        -----------------------------------------
Magnitude (a.u.)       :      1.36444
Magnitude (Debye)      :      3.46814

                             ****ORCA TERMINATED NORMALLY****
TOTAL RUN TIME: 0 days 0 hours 0 minutes 5 seconds 931 msec
