                         Program Version 4.0.0.2 - RELEASE -
|  1> ! WB97X-D3 6-31G(d) VerySlowConv
|  2> ! KDIIS NOSOSCF
|  3> %base "Scan_21"
|  4>
|  5> %scf
|  6> maxiter 999
|  7> end
|  8>
|  9> * xyz 0 1
| 10> C         -3.953664742131    0.386843403924    0.000000000000
| 11> N         -1.428077287858    0.461472243022    0.000000000000
| 12> H         -5.058037970011    0.354214353054    0.000000000000
| 13> **                         ****END OF INPUT****

CARTESIAN COORDINATES (ANGSTROEM)
---------------------------------
  C     -3.953665    0.386843    0.000000
  N     -1.428077    0.461472    0.000000
  H     -5.058038    0.354214    0.000000

 Total Charge           Charge          ....    0
 Multiplicity           Mult            ....    1
 Number of Electrons    NEL             ....   14
 Basis Dimension        Dim             ....   30

ORBITAL ENERGIES
----------------

  NO   OCC          E(Eh)            E(eV)
   0   2.0000     -14.523661      -395.2089
   1   2.0000     -10.468016      -284.8492
   2   2.0000      -0.803985       -21.8775
   3   2.0000      -0.777055       -21.1448
   4   2.0000      -0.453799       -12.3485
   5   2.0000      -0.306369        -8.3367
   6   2.0000      -0.306359        -8.3365
   7   0.0000      -0.092786        -2.5248
   8   0.0000      -0.092762        -2.5242
   9   0.0000      -0.032966        -0.8971
  10   0.0000       0.200580         5.4581
  11   0.0000       0.604836        16.4584

MULLIKEN ATOMIC CHARGES
-----------------------
   0 C :   -0.053520
   1 N :   -0.151547
   2 H :    0.205067
Sum of atomic charges:   -0.0000000

LOEWDIN ATOMIC CHARGES
----------------------
   0 C :    0.021589
   1 N :   -0.160165
   2 H :    0.138577

  Mayer bond orders larger than 0.1
B(  0-C ,  1-N ) :   1.6192 B(  0-C ,  2-H ) :   0.8726

Dispersion correction           -0.000130589
FINAL SINGLE POINT ENERGY       -92.858608701475

DIPOLE MOMENT
-------------
                                X             Y             Z
Electronic contribution:      0.78000       0.02247       0.00000
Nuclear contribution   :     -2.21856      -0.06555       0.00000
                        -----------------------------------------
Total Dipole Moment    :     -1.43856      -0.04309       0.00000
                        -----------------------------------------
Magnitude (a.u.)       :      1.43920
Magnitude (Debye)      :      3.65816

                             ****ORCA TERMINATED NORMALLY****
TOTAL RUN TIME: 0 days 0 hours 0 minutes 24 seconds 264 msec
