                         Program Version 4.0.0.2 - RELEASE -
|  1> ! WB97X-D3 6-31G(d) VerySlowConv
|  2> ! KDIIS NOSOSCF
|  3> %base "Scan_22"
|  4>
|  5> %scf
|  6> maxiter 999
|  7> end
|  8>
|  9> * xyz 0 1
| 10> C         -3.989966344318    0.385769752350    0.000000000000
| 11> N         -1.354466881815    0.463646567392    0.000000000000
| 12> H         -5.095346773867    0.353113680258    0.000000000000
| 13> **                         ****END OF INPUT****

CARTESIAN COORDINATES (ANGSTROEM)
---------------------------------
  C     -3.989966    0.385770    0.000000
  N     -1.354467    0.463647    0.000000
  H     -5.095347    0.353114    0.000000

 Total Charge           Charge          ....    0
 Multiplicity           Mult            ....    1
 Number of Electrons    NEL             ....   14
 Basis Dimension        Dim             ....   30

ORBITAL ENERGIES
----------------

  NO   OCC          E(Eh)            E(eV)
   0   2.0000     -14.516396      -395.0112
   1   2.0000     -10.469988      -284.9029
   2   2.0000      -0.802889       -21.8477
   3   2.0000      -0.774737       -21.0817
   4   2.0000      -0.454911       -12.3787
   5   2.0000      -0.300586        -8.1794
   6   2.0000      -0.300576        -8.1791
   7   0.0000      -0.096956        -2.6383
   8   0.0000      -0.096936        -2.6378
   9   0.0000      -0.032533        -0.8853
  10   0.0000       0.196687         5.3521
  11   0.0000       0.602869        16.4049

MULLIKEN ATOMIC CHARGES
-----------------------
   0 C :   -0.037164
   1 N :   -0.162907
   2 H :    0.200071
Sum of atomic charges:   -0.0000000

LOEWDIN ATOMIC CHARGES
----------------------
   0 C :    0.033002
   1 N :   -0.168638
   2 H :    0.135637

  Mayer bond orders larger than 0.1
B(  0-C ,  1-N ) :   1.5197 B(  0-C ,  2-H ) :   0.8779

Dispersion correction           -0.000138924
FINAL SINGLE POINT ENERGY       -92.844872182338

DIPOLE MOMENT
-------------
                                X             Y             Z
Electronic contribution:      0.75629       0.02233      -0.00000
Nuclear contribution   :     -2.27262      -0.06715       0.00000
                        -----------------------------------------
Total Dipole Moment    :     -1.51633      -0.04481      -0.00000
                        -----------------------------------------
Magnitude (a.u.)       :      1.51699
Magnitude (Debye)      :      3.85589

                             ****ORCA TERMINATED NORMALLY****
TOTAL RUN TIME: 0 days 0 hours 0 minutes 22 seconds 736 msec
