                         Program Version 4.0.0.2 - RELEASE -
|  1> ! WB97X-D3 6-31G(d) VerySlowConv
|  2> ! KDIIS NOSOSCF
|  3> %base "Scan_23"
|  4>
|  5> %scf
|  6> maxiter 999
|  7> end
|  8>
|  9> * xyz 0 1
| 10> C         -4.024639304887    0.384743849669   -0.000000000000
| 11> N         -1.282347259198    0.465776549616    0.000000000000
| 12> H         -5.132793435916    0.352009600715   -0.000000000000
| 13> **                         ****END OF INPUT****

CARTESIAN COORDINATES (ANGSTROEM)
---------------------------------
  C     -4.024639    0.384744   -0.000000
  N     -1.282347    0.465777    0.000000
  H     -5.132793    0.352010   -0.000000

 Total Charge           Charge          ....    0
 Multiplicity           Mult            ....    1
 Number of Electrons    NEL             ....   14
 Basis Dimension        Dim             ....   30

ORBITAL ENERGIES
----------------

  NO   OCC          E(Eh)            E(eV)
   0   2.0000     -14.510029      -394.8380
   1   2.0000     -10.472150      -284.9617
   2   2.0000      -0.802660       -21.8415
   3   2.0000      -0.771675       -20.9983
   4   2.0000      -0.456452       -12.4207
   5   2.0000      -0.295472        -8.0402
   6   2.0000      -0.295440        -8.0393
   7   0.0000      -0.100711        -2.7405
   8   0.0000      -0.100668        -2.7393
   9   0.0000      -0.031204        -0.8491
  10   0.0000       0.192559         5.2398
  11   0.0000       0.601231        16.3603

MULLIKEN ATOMIC CHARGES
-----------------------
   0 C :   -0.023651
   1 N :   -0.173051
   2 H :    0.196702
Sum of atomic charges:   -0.0000000

LOEWDIN ATOMIC CHARGES
----------------------
   0 C :    0.042814
   1 N :   -0.176787
   2 H :    0.133974

  Mayer bond orders larger than 0.1
B(  0-C ,  1-N ) :   1.4488 B(  0-C ,  2-H ) :   0.8822

Dispersion correction           -0.000151558
FINAL SINGLE POINT ENERGY       -92.833716030080

DIPOLE MOMENT
-------------
                                X             Y             Z
Electronic contribution:      0.73243       0.02173      -0.00000
Nuclear contribution   :     -2.32677      -0.06874       0.00000
                        -----------------------------------------
Total Dipole Moment    :     -1.59434      -0.04702      -0.00000
                        -----------------------------------------
Magnitude (a.u.)       :      1.59503
Magnitude (Debye)      :      4.05424

                             ****ORCA TERMINATED NORMALLY****
TOTAL RUN TIME: 0 days 0 hours 0 minutes 5 seconds 516 msec
