                         Program Version 4.0.0.2 - RELEASE -
|  1> ! WB97X-D3 6-31G(d) VerySlowConv
|  2> ! KDIIS NOSOSCF
|  3> %base "Scan_24"
|  4>
|  5> %scf
|  6> maxiter 999
|  7> end
|  8>
|  9> * xyz 0 1
| 10> C         -4.059296402171    0.383718271273    0.000000000000
| 11> N         -1.212048259437    0.467852685078    0.000000000000
| 12> H         -5.168435338393    0.350959043649   -0.000000000000
| 13> **                         ****END OF INPUT****

CARTESIAN COORDINATES (ANGSTROEM)
---------------------------------
  C     -4.059296    0.383718    0.000000
  N     -1.212048    0.467853    0.000000
  H     -5.168435    0.350959   -0.000000

 Total Charge           Charge          ....    0
 Multiplicity           Mult            ....    1
 Number of Electrons    NEL             ....   14
 Basis Dimension        Dim             ....   30

ORBITAL ENERGIES
----------------

  NO   OCC          E(Eh)            E(eV)
   0   2.0000     -14.504306      -394.6822
   1   2.0000     -10.473697      -285.0038
   2   2.0000      -0.803280       -21.8584
   3   2.0000      -0.768615       -20.9151
   4   2.0000      -0.457892       -12.4599
   5   2.0000      -0.290792        -7.9129
   6   2.0000      -0.290769        -7.9122
   7   0.0000      -0.104004        -2.8301
   8   0.0000      -0.103970        -2.8292
   9   0.0000      -0.029816        -0.8113
  10   0.0000       0.189462         5.1555
  11   0.0000       0.600041        16.3279

MULLIKEN ATOMIC CHARGES
-----------------------
   0 C :   -0.011990
   1 N :   -0.182466
   2 H :    0.194455
Sum of atomic charges:   -0.0000000

LOEWDIN ATOMIC CHARGES
----------------------
   0 C :    0.051997
   1 N :   -0.184741
   2 H :    0.132744

  Mayer bond orders larger than 0.1
B(  0-C ,  1-N ) :   1.3971 B(  0-C ,  2-H ) :   0.8849

Dispersion correction           -0.000169024
FINAL SINGLE POINT ENERGY       -92.824388017943

DIPOLE MOMENT
-------------
                                X             Y             Z
Electronic contribution:      0.70777       0.02093       0.00000
Nuclear contribution   :     -2.37841      -0.07027       0.00000
                        -----------------------------------------
Total Dipole Moment    :     -1.67065      -0.04934       0.00000
                        -----------------------------------------
Magnitude (a.u.)       :      1.67138
Magnitude (Debye)      :      4.24830

                             ****ORCA TERMINATED NORMALLY****
TOTAL RUN TIME: 0 days 0 hours 0 minutes 5 seconds 187 msec
