                         Program Version 4.0.0.2 - RELEASE -
|  1> ! WB97X-D3 6-31G(d) VerySlowConv
|  2> ! KDIIS NOSOSCF
|  3> %base "Scan_25"
|  4>
|  5> %scf
|  6> maxiter 999
|  7> end
|  8>
|  9> * xyz 0 1
| 10> C         -4.093735932664    0.382699064973    0.000000000000
| 11> N         -1.142611998577    0.469903387440    0.000000000000
| 12> H         -5.203432068760    0.349927547587    0.000000000000
| 13> **                         ****END OF INPUT****

CARTESIAN COORDINATES (ANGSTROEM)
---------------------------------
  C     -4.093736    0.382699    0.000000
  N     -1.142612    0.469903    0.000000
  H     -5.203432    0.349928    0.000000

 Total Charge           Charge          ....    0
 Multiplicity           Mult            ....    1
 Number of Electrons    NEL             ....   14
 Basis Dimension        Dim             ....   30

ORBITAL ENERGIES
----------------

  NO   OCC          E(Eh)            E(eV)
   0   2.0000     -14.499107      -394.5408
   1   2.0000     -10.475241      -285.0458
   2   2.0000      -0.804324       -21.8868
   3   2.0000      -0.765590       -20.8328
   4   2.0000      -0.459424       -12.5016
   5   2.0000      -0.286500        -7.7961
   6   2.0000      -0.286499        -7.7960
   7   0.0000      -0.107028        -2.9124
   8   0.0000      -0.107021        -2.9122
   9   0.0000      -0.028198        -0.7673
  10   0.0000       0.186719         5.0809
  11   0.0000       0.598970        16.2988

MULLIKEN ATOMIC CHARGES
-----------------------
   0 C :   -0.002083
   1 N :   -0.191081
   2 H :    0.193164
Sum of atomic charges:   -0.0000000

LOEWDIN ATOMIC CHARGES
----------------------
   0 C :    0.060350
   1 N :   -0.192369
   2 H :    0.132018

  Mayer bond orders larger than 0.1
B(  0-C ,  1-N ) :   1.3592 B(  0-C ,  2-H ) :   0.8867

Dispersion correction           -0.000190298
FINAL SINGLE POINT ENERGY       -92.816396721133

DIPOLE MOMENT
-------------
                                X             Y             Z
Electronic contribution:      0.68186       0.01978       0.00000
Nuclear contribution   :     -2.42915      -0.07176       0.00000
                        -----------------------------------------
Total Dipole Moment    :     -1.74729      -0.05199       0.00000
                        -----------------------------------------
Magnitude (a.u.)       :      1.74807
Magnitude (Debye)      :      4.44323

                             ****ORCA TERMINATED NORMALLY****
TOTAL RUN TIME: 0 days 0 hours 0 minutes 6 seconds 187 msec
