                         Program Version 4.0.0.2 - RELEASE -
|  1> ! WB97X-D3 6-31G(d) VerySlowConv
|  2> ! KDIIS NOSOSCF
|  3> %base "Scan_26"
|  4>
|  5> %scf
|  6> maxiter 999
|  7> end
|  8>
|  9> * xyz 0 1
| 10> C         -4.128029325534    0.381684165575    0.000000000000
| 11> N         -1.073714076685    0.471938298548    0.000000000000
| 12> H         -5.238036597781    0.348907535878   -0.000000000000
| 13> **                         ****END OF INPUT****

CARTESIAN COORDINATES (ANGSTROEM)
---------------------------------
  C     -4.128029    0.381684    0.000000
  N     -1.073714    0.471938    0.000000
  H     -5.238037    0.348908   -0.000000

 Total Charge           Charge          ....    0
 Multiplicity           Mult            ....    1
 Number of Electrons    NEL             ....   14
 Basis Dimension        Dim             ....   30

ORBITAL ENERGIES
----------------

  NO   OCC          E(Eh)            E(eV)
   0   2.0000     -14.193815      -386.2333
   1   2.0000     -10.754149      -292.6353
   2   2.0000      -1.013752       -27.5856
   3   2.0000      -0.648550       -17.6479
   4   2.0000      -0.517889       -14.0925
   5   2.0000      -0.066054        -1.7974
   6   2.0000      -0.066036        -1.7969
   7   0.0000      -0.277726        -7.5573
   8   0.0000      -0.277723        -7.5572
   9   0.0000       0.037538         1.0215
  10   0.0000       0.188460         5.1283
  11   0.0000       0.458125        12.4662

MULLIKEN ATOMIC CHARGES
-----------------------
   0 C :    0.694826
   1 N :   -0.986199
   2 H :    0.291372
Sum of atomic charges:    0.0000000

LOEWDIN ATOMIC CHARGES
----------------------
   0 C :    0.790378
   1 N :   -0.988087
   2 H :    0.197710

  Mayer bond orders larger than 0.1
B(  0-C ,  2-H ) :   0.8340

Dispersion correction           -0.000212892
FINAL SINGLE POINT ENERGY       -92.644210918003

DIPOLE MOMENT
-------------
                                X             Y             Z
Electronic contribution:     -3.85444      -0.11544       0.00000
Nuclear contribution   :     -2.47933      -0.07324       0.00000
                        -----------------------------------------
Total Dipole Moment    :     -6.33377      -0.18868       0.00000
                        -----------------------------------------
Magnitude (a.u.)       :      6.33658
Magnitude (Debye)      :     16.10632

                             ****ORCA TERMINATED NORMALLY****
TOTAL RUN TIME: 0 days 0 hours 0 minutes 11 seconds 381 msec
