                         Program Version 4.0.0.2 - RELEASE -
|  1> ! WB97X-D3 6-31G(d) VerySlowConv
|  2> ! KDIIS NOSOSCF
|  3> %base "Scan_27"
|  4>
|  5> %scf
|  6> maxiter 999
|  7> end
|  8>
|  9> * xyz 0 1
| 10> C         -4.162233940620    0.380671879147   -0.000000000000
| 11> N         -1.005131333089    0.473964019591    0.000000000000
| 12> H         -5.272414726292    0.347894101263    0.000000000000
| 13> **                         ****END OF INPUT****

CARTESIAN COORDINATES (ANGSTROEM)
---------------------------------
  C     -4.162234    0.380672   -0.000000
  N     -1.005131    0.473964    0.000000
  H     -5.272415    0.347894    0.000000

 Total Charge           Charge          ....    0
 Multiplicity           Mult            ....    1
 Number of Electrons    NEL             ....   14
 Basis Dimension        Dim             ....   30

ORBITAL ENERGIES
----------------

  NO   OCC          E(Eh)            E(eV)
   0   2.0000     -14.188989      -386.1020
   1   2.0000     -10.759010      -292.7675
   2   2.0000      -1.018023       -27.7018
   3   2.0000      -0.653366       -17.7790
   4   2.0000      -0.513526       -13.9738
   5   2.0000      -0.061421        -1.6713
   6   2.0000      -0.061391        -1.6705
   7   0.0000      -0.282346        -7.6830
   8   0.0000      -0.282343        -7.6829
   9   0.0000       0.034163         0.9296
  10   0.0000       0.192314         5.2331
  11   0.0000       0.453670        12.3450

MULLIKEN ATOMIC CHARGES
-----------------------
   0 C :    0.695478
   1 N :   -0.989072
   2 H :    0.293594
Sum of atomic charges:   -0.0000000

LOEWDIN ATOMIC CHARGES
----------------------
   0 C :    0.791002
   1 N :   -0.990522
   2 H :    0.199520

  Mayer bond orders larger than 0.1
B(  0-C ,  2-H ) :   0.8337

Dispersion correction           -0.000232973
FINAL SINGLE POINT ENERGY       -92.640394963811

DIPOLE MOMENT
-------------
                                X             Y             Z
Electronic contribution:     -4.02001      -0.12137       0.00000
Nuclear contribution   :     -2.52920      -0.07471       0.00000
                        -----------------------------------------
Total Dipole Moment    :     -6.54921      -0.19609       0.00000
                        -----------------------------------------
Magnitude (a.u.)       :      6.55214
Magnitude (Debye)      :     16.65422

                             ****ORCA TERMINATED NORMALLY****
TOTAL RUN TIME: 0 days 0 hours 0 minutes 40 seconds 385 msec
