                         Program Version 4.0.0.2 - RELEASE -
|  1> ! WB97X-D3 6-31G(d) VerySlowConv
|  2> ! KDIIS NOSOSCF
|  3> %base "Scan_28"
|  4>
|  5> %scf
|  6> maxiter 999
|  7> end
|  8>
|  9> * xyz 0 1
| 10> C         -4.196388579289    0.379661036919    0.000000000000
| 11> N         -0.936729929120    0.475984487395    0.000000000000
| 12> H         -5.306661491592    0.346884475687    0.000000000000
| 13> **                         ****END OF INPUT****

CARTESIAN COORDINATES (ANGSTROEM)
---------------------------------
  C     -4.196389    0.379661    0.000000
  N     -0.936730    0.475984    0.000000
  H     -5.306661    0.346884    0.000000

 Total Charge           Charge          ....    0
 Multiplicity           Mult            ....    1
 Number of Electrons    NEL             ....   14
 Basis Dimension        Dim             ....   30

ORBITAL ENERGIES
----------------

  NO   OCC          E(Eh)            E(eV)
   0   2.0000     -14.486169      -394.1887
   1   2.0000     -10.478721      -285.1405
   2   2.0000      -0.807864       -21.9831
   3   2.0000      -0.757517       -20.6131
   4   2.0000      -0.463617       -12.6157
   5   2.0000      -0.275555        -7.4982
   6   2.0000      -0.275551        -7.4981
   7   0.0000      -0.114673        -3.1204
   8   0.0000      -0.114672        -3.1204
   9   0.0000      -0.022505        -0.6124
  10   0.0000       0.180480         4.9111
  11   0.0000       0.588247        16.0070

MULLIKEN ATOMIC CHARGES
-----------------------
   0 C :    0.020603
   1 N :   -0.211991
   2 H :    0.191387
Sum of atomic charges:    0.0000000

LOEWDIN ATOMIC CHARGES
----------------------
   0 C :    0.081129
   1 N :   -0.212022
   2 H :    0.130893

  Mayer bond orders larger than 0.1
B(  0-C ,  1-N ) :   1.2903 B(  0-C ,  2-H ) :   0.8894

Dispersion correction           -0.000246577
FINAL SINGLE POINT ENERGY       -92.798083767358

DIPOLE MOMENT
-------------
                                X             Y             Z
Electronic contribution:      0.60902       0.01716       0.00000
Nuclear contribution   :     -2.57887      -0.07618       0.00000
                        -----------------------------------------
Total Dipole Moment    :     -1.96985      -0.05902       0.00000
                        -----------------------------------------
Magnitude (a.u.)       :      1.97073
Magnitude (Debye)      :      5.00921

                             ****ORCA TERMINATED NORMALLY****
TOTAL RUN TIME: 0 days 0 hours 0 minutes 27 seconds 173 msec
