                         Program Version 4.0.0.2 - RELEASE -
|  1> ! WB97X-D3 6-31G(d) VerySlowConv
|  2> ! KDIIS NOSOSCF
|  3> %base "Scan_29"
|  4>
|  5> %scf
|  6> maxiter 999
|  7> end
|  8>
|  9> * xyz 0 1
| 10> C         -4.230513562230    0.378651006267    0.000000000000
| 11> N         -0.868434694466    0.478001895776    0.000000000000
| 12> H         -5.340831743304    0.345877097957   -0.000000000000
| 13> **                         ****END OF INPUT****

CARTESIAN COORDINATES (ANGSTROEM)
---------------------------------
  C     -4.230514    0.378651    0.000000
  N     -0.868435    0.478002    0.000000
  H     -5.340832    0.345877   -0.000000

 Total Charge           Charge          ....    0
 Multiplicity           Mult            ....    1
 Number of Electrons    NEL             ....   14
 Basis Dimension        Dim             ....   30

ORBITAL ENERGIES
----------------

  NO   OCC          E(Eh)            E(eV)
   0   2.0000     -14.180074      -385.8594
   1   2.0000     -10.767805      -293.0069
   2   2.0000      -1.025890       -27.9159
   3   2.0000      -0.662544       -18.0287
   4   2.0000      -0.505216       -13.7476
   5   2.0000      -0.052888        -1.4391
   6   2.0000      -0.052868        -1.4386
   7   0.0000      -0.290862        -7.9148
   8   0.0000      -0.290856        -7.9146
   9   0.0000       0.027981         0.7614
  10   0.0000       0.200425         5.4538
  11   0.0000       0.445449        12.1213

MULLIKEN ATOMIC CHARGES
-----------------------
   0 C :    0.695628
   1 N :   -0.993727
   2 H :    0.298099
Sum of atomic charges:   -0.0000000

LOEWDIN ATOMIC CHARGES
----------------------
   0 C :    0.791683
   1 N :   -0.994558
   2 H :    0.202875

  Mayer bond orders larger than 0.1
B(  0-C ,  2-H ) :   0.8335

Dispersion correction           -0.000251485
FINAL SINGLE POINT ENERGY       -92.633285086716

DIPOLE MOMENT
-------------
                                X             Y             Z
Electronic contribution:     -4.34768      -0.13108      -0.00000
Nuclear contribution   :     -2.62844      -0.07764       0.00000
                        -----------------------------------------
Total Dipole Moment    :     -6.97613      -0.20872      -0.00000
                        -----------------------------------------
Magnitude (a.u.)       :      6.97925
Magnitude (Debye)      :     17.73984

                             ****ORCA TERMINATED NORMALLY****
TOTAL RUN TIME: 0 days 0 hours 0 minutes 6 seconds 524 msec
