                         Program Version 4.0.0.2 - RELEASE -
|  1> ! WB97X-D3 6-31G(d) VerySlowConv
|  2> ! KDIIS NOSOSCF
|  3> %base "Scan_3"
|  4>
|  5> %scf
|  6> maxiter 999
|  7> end
|  8>
|  9> * xyz 0 1
| 10> C         -3.474030560880    0.401017350194   -0.000000000000
| 11> N         -2.427217509848    0.431949940380    0.000000000000
| 12> H         -4.538531929272    0.369562709426   -0.000000000000
| 13> **                         ****END OF INPUT****

CARTESIAN COORDINATES (ANGSTROEM)
---------------------------------
  C     -3.474031    0.401017   -0.000000
  N     -2.427218    0.431950    0.000000
  H     -4.538532    0.369563   -0.000000

 Total Charge           Charge          ....    0
 Multiplicity           Mult            ....    1
 Number of Electrons    NEL             ....   14
 Basis Dimension        Dim             ....   30

ORBITAL ENERGIES
----------------

  NO   OCC          E(Eh)            E(eV)
   0   2.0000     -14.430182      -392.6652
   1   2.0000     -10.311158      -280.5809
   2   2.0000      -1.070173       -29.1209
   3   2.0000      -0.702221       -19.1084
   4   2.0000      -0.482793       -13.1375
   5   2.0000      -0.482787       -13.1373
   6   2.0000      -0.468568       -12.7504
   7   0.0000       0.156867         4.2686
   8   0.0000       0.156877         4.2688
   9   0.0000       0.191160         5.2017
  10   0.0000       0.365857         9.9555
  11   0.0000       0.614325        16.7166

MULLIKEN ATOMIC CHARGES
-----------------------
   0 C :   -0.037425
   1 N :   -0.232448
   2 H :    0.269873
Sum of atomic charges:   -0.0000000

LOEWDIN ATOMIC CHARGES
----------------------
   0 C :   -0.138599
   1 N :   -0.037499
   2 H :    0.176098

  Mayer bond orders larger than 0.1
B(  0-C ,  1-N ) :   3.1300 B(  0-C ,  2-H ) :   0.8826

Dispersion correction           -0.000015519
FINAL SINGLE POINT ENERGY       -93.353934437653

DIPOLE MOMENT
-------------
                                X             Y             Z
Electronic contribution:      0.30777       0.00904       0.00000
Nuclear contribution   :     -1.46745      -0.04336       0.00000
                        -----------------------------------------
Total Dipole Moment    :     -1.15968      -0.03432       0.00000
                        -----------------------------------------
Magnitude (a.u.)       :      1.16019
Magnitude (Debye)      :      2.94896

                             ****ORCA TERMINATED NORMALLY****
TOTAL RUN TIME: 0 days 0 hours 0 minutes 5 seconds 338 msec
