                         Program Version 4.0.0.2 - RELEASE -
|  1> ! WB97X-D3 6-31G(d) VerySlowConv
|  2> ! KDIIS NOSOSCF
|  3> %base "Scan_30"
|  4>
|  5> %scf
|  6> maxiter 999
|  7> end
|  8>
|  9> * xyz 0 1
| 10> C         -4.264619949059    0.377641426755    0.000000000000
| 11> N         -0.800203146961    0.480017472527    0.000000000000
| 12> H         -5.374956903981    0.344871100719   -0.000000000000
| 13> **                         ****END OF INPUT****

CARTESIAN COORDINATES (ANGSTROEM)
---------------------------------
  C     -4.264620    0.377641    0.000000
  N     -0.800203    0.480017    0.000000
  H     -5.374957    0.344871   -0.000000

 Total Charge           Charge          ....    0
 Multiplicity           Mult            ....    1
 Number of Electrons    NEL             ....   14
 Basis Dimension        Dim             ....   30

ORBITAL ENERGIES
----------------

  NO   OCC          E(Eh)            E(eV)
   0   2.0000     -14.176058      -385.7502
   1   2.0000     -10.771776      -293.1149
   2   2.0000      -1.029435       -28.0123
   3   2.0000      -0.666818       -18.1450
   4   2.0000      -0.501413       -13.6441
   5   2.0000      -0.049078        -1.3355
   6   2.0000      -0.049045        -1.3346
   7   0.0000      -0.294726        -8.0199
   8   0.0000      -0.294720        -8.0197
   9   0.0000       0.025070         0.6822
  10   0.0000       0.204531         5.5656
  11   0.0000       0.441676        12.0186

MULLIKEN ATOMIC CHARGES
-----------------------
   0 C :    0.695009
   1 N :   -0.995062
   2 H :    0.300053
Sum of atomic charges:   -0.0000000

LOEWDIN ATOMIC CHARGES
----------------------
   0 C :    0.791404
   1 N :   -0.995667
   2 H :    0.204263

  Mayer bond orders larger than 0.1
B(  0-C ,  2-H ) :   0.8331

Dispersion correction           -0.000248238
FINAL SINGLE POINT ENERGY       -92.629984343235

DIPOLE MOMENT
-------------
                                X             Y             Z
Electronic contribution:     -4.50672      -0.13666       0.00000
Nuclear contribution   :     -2.67795      -0.07910       0.00000
                        -----------------------------------------
Total Dipole Moment    :     -7.18467      -0.21576       0.00000
                        -----------------------------------------
Magnitude (a.u.)       :      7.18791
Magnitude (Debye)      :     18.27021

                             ****ORCA TERMINATED NORMALLY****
TOTAL RUN TIME: 0 days 0 hours 0 minutes 8 seconds 375 msec
