                         Program Version 4.0.0.2 - RELEASE -
|  1> ! WB97X-D3 6-31G(d) VerySlowConv
|  2> ! KDIIS NOSOSCF
|  3> %base "Scan_31"
|  4>
|  5> %scf
|  6> maxiter 999
|  7> end
|  8>
|  9> * xyz 0 1
| 10> C         -4.298714564662    0.376632064834    0.000000000000
| 11> N         -0.732009886682    0.482031945661    0.000000000000
| 12> H         -5.409055548657    0.343865989506   -0.000000000000
| 13> **                         ****END OF INPUT****

CARTESIAN COORDINATES (ANGSTROEM)
---------------------------------
  C     -4.298715    0.376632    0.000000
  N     -0.732010    0.482032    0.000000
  H     -5.409056    0.343866   -0.000000

 Total Charge           Charge          ....    0
 Multiplicity           Mult            ....    1
 Number of Electrons    NEL             ....   14
 Basis Dimension        Dim             ....   30

ORBITAL ENERGIES
----------------

  NO   OCC          E(Eh)            E(eV)
   0   2.0000     -14.172474      -385.6526
   1   2.0000     -10.775409      -293.2138
   2   2.0000      -1.032690       -28.1009
   3   2.0000      -0.670813       -18.2537
   4   2.0000      -0.497918       -13.5490
   5   2.0000      -0.045618        -1.2413
   6   2.0000      -0.045552        -1.2395
   7   0.0000      -0.298296        -8.1170
   8   0.0000      -0.298287        -8.1168
   9   0.0000       0.022301         0.6068
  10   0.0000       0.208562         5.6753
  11   0.0000       0.438157        11.9229

MULLIKEN ATOMIC CHARGES
-----------------------
   0 C :    0.693940
   1 N :   -0.995750
   2 H :    0.301810
Sum of atomic charges:   -0.0000000

LOEWDIN ATOMIC CHARGES
----------------------
   0 C :    0.790689
   1 N :   -0.996167
   2 H :    0.205479

  Mayer bond orders larger than 0.1
B(  0-C ,  2-H ) :   0.8326

Dispersion correction           -0.000239318
FINAL SINGLE POINT ENERGY       -92.626865030201

DIPOLE MOMENT
-------------
                                X             Y             Z
Electronic contribution:     -4.66216      -0.14287      -0.00000
Nuclear contribution   :     -2.72742      -0.08056       0.00000
                        -----------------------------------------
Total Dipole Moment    :     -7.38958      -0.22343      -0.00000
                        -----------------------------------------
Magnitude (a.u.)       :      7.39295
Magnitude (Debye)      :     18.79139

                             ****ORCA TERMINATED NORMALLY****
TOTAL RUN TIME: 0 days 0 hours 0 minutes 18 seconds 333 msec
