                         Program Version 4.0.0.2 - RELEASE -
|  1> ! WB97X-D3 6-31G(d) VerySlowConv
|  2> ! KDIIS NOSOSCF
|  3> %base "Scan_32"
|  4>
|  5> %scf
|  6> maxiter 999
|  7> end
|  8>
|  9> * xyz 0 1
| 10> C         -4.332801948823    0.375622757751    0.000000000000
| 11> N         -0.663839095965    0.484045764883   -0.000000000000
| 12> H         -5.443138955213    0.342861477366    0.000000000000
| 13> **                         ****END OF INPUT****

CARTESIAN COORDINATES (ANGSTROEM)
---------------------------------
  C     -4.332802    0.375623    0.000000
  N     -0.663839    0.484046   -0.000000
  H     -5.443139    0.342861    0.000000

 Total Charge           Charge          ....    0
 Multiplicity           Mult            ....    1
 Number of Electrons    NEL             ....   14
 Basis Dimension        Dim             ....   30

ORBITAL ENERGIES
----------------

  NO   OCC          E(Eh)            E(eV)
   0   2.0000     -14.170397      -385.5961
   1   2.0000     -10.777662      -293.2751
   2   2.0000      -1.034883       -28.1606
   3   2.0000      -0.673778       -18.3344
   4   2.0000      -0.495585       -13.4855
   5   2.0000      -0.043248        -1.1768
   6   2.0000      -0.042980        -1.1696
   7   0.0000      -0.300914        -8.1883
   8   0.0000      -0.300899        -8.1879
   9   0.0000       0.020118         0.5474
  10   0.0000       0.211626         5.7586
  11   0.0000       0.435441        11.8489

MULLIKEN ATOMIC CHARGES
-----------------------
   0 C :    0.692377
   1 N :   -0.993843
   2 H :    0.301467
Sum of atomic charges:    0.0000000

LOEWDIN ATOMIC CHARGES
----------------------
   0 C :    0.788675
   1 N :   -0.994030
   2 H :    0.205355

  Mayer bond orders larger than 0.1
B(  0-C ,  2-H ) :   0.8304

Dispersion correction           -0.000227418
FINAL SINGLE POINT ENERGY       -92.624031310612

DIPOLE MOMENT
-------------
                                X             Y             Z
Electronic contribution:     -4.79490      -0.15169      -0.00000
Nuclear contribution   :     -2.77686      -0.08201       0.00000
                        -----------------------------------------
Total Dipole Moment    :     -7.57177      -0.23371      -0.00000
                        -----------------------------------------
Magnitude (a.u.)       :      7.57537
Magnitude (Debye)      :     19.25507

                             ****ORCA TERMINATED NORMALLY****
TOTAL RUN TIME: 0 days 0 hours 0 minutes 18 seconds 387 msec
