                         Program Version 4.0.0.2 - RELEASE -
|  1> ! WB97X-D3 6-31G(d) VerySlowConv
|  2> ! KDIIS NOSOSCF
|  3> %base "Scan_33"
|  4>
|  5> %scf
|  6> maxiter 999
|  7> end
|  8>
|  9> * xyz 0 1
| 10> C         -4.366885110332    0.374613390520   -0.000000000000
| 11> N         -0.595680907817    0.486059208759   -0.000000000000
| 12> H         -5.477213981852    0.341857400721    0.000000000000
| 13> **                         ****END OF INPUT****

CARTESIAN COORDINATES (ANGSTROEM)
---------------------------------
  C     -4.366885    0.374613   -0.000000
  N     -0.595681    0.486059   -0.000000
  H     -5.477214    0.341857    0.000000

 Total Charge           Charge          ....    0
 Multiplicity           Mult            ....    1
 Number of Electrons    NEL             ....   14
 Basis Dimension        Dim             ....   30

ORBITAL ENERGIES
----------------

  NO   OCC          E(Eh)            E(eV)
   0   2.0000     -14.203268      -386.4906
   1   2.0000     -10.750023      -292.5230
   2   2.0000      -1.011412       -27.5219
   3   2.0000      -0.656602       -17.8670
   4   2.0000      -0.524006       -14.2589
   5   2.0000      -0.070232        -1.9111
   6   2.0000      -0.063164        -1.7188
   7   0.0000      -0.283318        -7.7095
   8   0.0000      -0.283250        -7.7076
   9   0.0000       0.026944         0.7332
  10   0.0000       0.188154         5.1199
  11   0.0000       0.448721        12.2103

MULLIKEN ATOMIC CHARGES
-----------------------
   0 C :    0.683707
   1 N :   -0.902564
   2 H :    0.218858
Sum of atomic charges:   -0.0000000

LOEWDIN ATOMIC CHARGES
----------------------
   0 C :    0.746503
   1 N :   -0.900413
   2 H :    0.153910

  Mayer bond orders larger than 0.1
B(  0-C ,  2-H ) :   0.7431 B(  1-N ,  2-H ) :   0.1689

Dispersion correction           -0.000214270
FINAL SINGLE POINT ENERGY       -92.622609613346

DIPOLE MOMENT
-------------
                                X             Y             Z
Electronic contribution:     -4.11283      -0.14334       0.00000
Nuclear contribution   :     -2.82630      -0.08347       0.00000
                        -----------------------------------------
Total Dipole Moment    :     -6.93913      -0.22681       0.00000
                        -----------------------------------------
Magnitude (a.u.)       :      6.94283
Magnitude (Debye)      :     17.64728

                             ****ORCA TERMINATED NORMALLY****
TOTAL RUN TIME: 0 days 0 hours 0 minutes 23 seconds 373 msec
