                         Program Version 4.0.0.2 - RELEASE -
|  1> ! WB97X-D3 6-31G(d) VerySlowConv
|  2> ! KDIIS NOSOSCF
|  3> %base "Scan_34"
|  4>
|  5> %scf
|  6> maxiter 999
|  7> end
|  8>
|  9> * xyz 0 1
| 10> C         -4.400965964906    0.373603881941   -0.000000000000
| 11> N         -0.527529327018    0.488072444914   -0.000000000000
| 12> H         -5.511284708077    0.340853673145    0.000000000000
| 13> **                         ****END OF INPUT****

CARTESIAN COORDINATES (ANGSTROEM)
---------------------------------
  C     -4.400966    0.373604   -0.000000
  N     -0.527529    0.488072   -0.000000
  H     -5.511285    0.340854    0.000000

 Total Charge           Charge          ....    0
 Multiplicity           Mult            ....    1
 Number of Electrons    NEL             ....   14
 Basis Dimension        Dim             ....   30

ORBITAL ENERGIES
----------------

  NO   OCC          E(Eh)            E(eV)
   0   2.0000     -14.206812      -386.5870
   1   2.0000     -10.748344      -292.4773
   2   2.0000      -1.009802       -27.4781
   3   2.0000      -0.656530       -17.8651
   4   2.0000      -0.526782       -14.3345
   5   2.0000      -0.072796        -1.9809
   6   2.0000      -0.064486        -1.7548
   7   0.0000      -0.282890        -7.6978
   8   0.0000      -0.282822        -7.6960
   9   0.0000       0.026343         0.7168
  10   0.0000       0.186412         5.0725
  11   0.0000       0.448541        12.2054

MULLIKEN ATOMIC CHARGES
-----------------------
   0 C :    0.681370
   1 N :   -0.886912
   2 H :    0.205542
Sum of atomic charges:   -0.0000000

LOEWDIN ATOMIC CHARGES
----------------------
   0 C :    0.739447
   1 N :   -0.884786
   2 H :    0.145339

  Mayer bond orders larger than 0.1
B(  0-C ,  2-H ) :   0.7264 B(  1-N ,  2-H ) :   0.1972

Dispersion correction           -0.000200541
FINAL SINGLE POINT ENERGY       -92.620509155579

DIPOLE MOMENT
-------------
                                X             Y             Z
Electronic contribution:     -4.10075      -0.14217      -0.00000
Nuclear contribution   :     -2.87573      -0.08493       0.00000
                        -----------------------------------------
Total Dipole Moment    :     -6.97648      -0.22710      -0.00000
                        -----------------------------------------
Magnitude (a.u.)       :      6.98018
Magnitude (Debye)      :     17.74220

                             ****ORCA TERMINATED NORMALLY****
TOTAL RUN TIME: 0 days 0 hours 1 minutes 51 seconds 731 msec
