                         Program Version 4.0.0.2 - RELEASE -
|  1> ! WB97X-D3 6-31G(d) VerySlowConv
|  2> ! KDIIS NOSOSCF
|  3> %base "Scan_35"
|  4>
|  5> %scf
|  6> maxiter 2999
|  7> end
|  8>
|  9> * xyz 0 1
| 10> C         -4.435045674325    0.372594174296    0.000000000000
| 11> N         -0.459380815627    0.490085571449    0.000000000000
| 12> H         -5.545353510048    0.339850254256    0.000000000000
| 13> *
| 14>
| 15>                          ****END OF INPUT****

CARTESIAN COORDINATES (ANGSTROEM)
---------------------------------
  C     -4.435046    0.372594    0.000000
  N     -0.459381    0.490086    0.000000
  H     -5.545354    0.339850    0.000000

 Total Charge           Charge          ....    0
 Multiplicity           Mult            ....    1
 Number of Electrons    NEL             ....   14
 Basis Dimension        Dim             ....   30

ORBITAL ENERGIES
----------------

  NO   OCC          E(Eh)            E(eV)
   0   2.0000     -14.245570      -387.6417
   1   2.0000     -10.732172      -292.0373
   2   2.0000      -0.990880       -26.9632
   3   2.0000      -0.639012       -17.3884
   4   2.0000      -0.557056       -15.1583
   5   2.0000      -0.101661        -2.7663
   6   2.0000      -0.092622        -2.5204
   7   0.0000      -0.267385        -7.2759
   8   0.0000      -0.267183        -7.2704
   9   0.0000       0.040017         1.0889
  10   0.0000       0.162993         4.4353
  11   0.0000       0.461470        12.5572

MULLIKEN ATOMIC CHARGES
-----------------------
   0 C :    0.672985
   1 N :   -0.797808
   2 H :    0.124822
Sum of atomic charges:   -0.0000000

LOEWDIN ATOMIC CHARGES
----------------------
   0 C :    0.714101
   1 N :   -0.804739
   2 H :    0.090638

  Mayer bond orders larger than 0.1
B(  0-C ,  2-H ) :   0.6333 B(  1-N ,  2-H ) :   0.3304

Dispersion correction           -0.000186306
FINAL SINGLE POINT ENERGY       -92.634587662503

DIPOLE MOMENT
-------------
                                X             Y             Z
Electronic contribution:     -3.47725      -0.10274      -0.00003
Nuclear contribution   :     -2.92515      -0.08638       0.00000
                        -----------------------------------------
Total Dipole Moment    :     -6.40240      -0.18912      -0.00003
                        -----------------------------------------
Magnitude (a.u.)       :      6.40519
Magnitude (Debye)      :     16.28071

                             ****ORCA TERMINATED NORMALLY****
TOTAL RUN TIME: 0 days 0 hours 13 minutes 22 seconds 879 msec
