                         Program Version 4.0.0.2 - RELEASE -
|  1> ! WB97X-D3 6-31G(d) VerySlowConv
|  2> ! KDIIS NOSOSCF
|  3> %base "Scan_36"
|  4>
|  5> %scf
|  6> maxiter 1999
|  7> end
|  8>
|  9> * xyz 0 1
| 10> C         -4.469124893901    0.371584224421   -0.000000000000
| 11> N         -0.391233403180    0.492098641519   -0.000000000000
| 12> H         -5.579421702920    0.338847134060    0.000000000000
| 13> *
| 14>
| 15>                          ****END OF INPUT****

CARTESIAN COORDINATES (ANGSTROEM)
---------------------------------
  C     -4.469125    0.371584   -0.000000
  N     -0.391233    0.492099   -0.000000
  H     -5.579422    0.338847    0.000000

 Total Charge           Charge          ....    0
 Multiplicity           Mult            ....    1
 Number of Electrons    NEL             ....   14
 Basis Dimension        Dim             ....   30

ORBITAL ENERGIES
----------------

  NO   OCC          E(Eh)            E(eV)
   0   2.0000     -14.182438      -385.9238
   1   2.0000     -10.763051      -292.8775
   2   2.0000      -1.024067       -27.8663
   3   2.0000      -0.666631       -18.1400
   4   2.0000      -0.504256       -13.7215
   5   2.0000      -0.051154        -1.3920
   6   2.0000      -0.048939        -1.3317
   7   0.0000      -0.293896        -7.9973
   8   0.0000      -0.293715        -7.9924
   9   0.0000       0.021013         0.5718
  10   0.0000       0.211513         5.7556
  11   0.0000       0.439418        11.9572

MULLIKEN ATOMIC CHARGES
-----------------------
   0 C :    0.682423
   1 N :   -0.939685
   2 H :    0.257262
Sum of atomic charges:   -0.0000000

LOEWDIN ATOMIC CHARGES
----------------------
   0 C :    0.760303
   1 N :   -0.938131
   2 H :    0.177827

  Mayer bond orders larger than 0.1
B(  0-C ,  2-H ) :   0.7850

Dispersion correction           -0.000171567
FINAL SINGLE POINT ENERGY       -92.618419654766

DIPOLE MOMENT
-------------
                                X             Y             Z
Electronic contribution:     -4.87436      -0.14364       0.00000
Nuclear contribution   :     -2.97458      -0.08784       0.00000
                        -----------------------------------------
Total Dipole Moment    :     -7.84893      -0.23148       0.00000
                        -----------------------------------------
Magnitude (a.u.)       :      7.85235
Magnitude (Debye)      :     19.95908

                             ****ORCA TERMINATED NORMALLY****
TOTAL RUN TIME: 0 days 0 hours 7 minutes 22 seconds 35 msec
