                         Program Version 4.0.0.2 - RELEASE -
|  1> ! WB97X-D3 6-31G(d) VerySlowConv
|  2> ! KDIIS NOSOSCF
|  3> %base "Scan_37"
|  4>
|  5> %scf
|  6> maxiter 999
|  7> end
|  8>
|  9> * xyz 0 1
| 10> C         -4.503203958842    0.370573997791    0.000000000000
| 11> N         -0.323086063293    0.494111681375    0.000000000000
| 12> H         -5.613489977865    0.337844320834   -0.000000000000
| 13> **                         ****END OF INPUT****

CARTESIAN COORDINATES (ANGSTROEM)
---------------------------------
  C     -4.503204    0.370574    0.000000
  N     -0.323086    0.494112    0.000000
  H     -5.613490    0.337844   -0.000000

 Total Charge           Charge          ....    0
 Multiplicity           Mult            ....    1
 Number of Electrons    NEL             ....   14
 Basis Dimension        Dim             ....   30

ORBITAL ENERGIES
----------------

  NO   OCC          E(Eh)            E(eV)
   0   2.0000     -14.240242      -387.4967
   1   2.0000     -10.735841      -292.1371
   2   2.0000      -0.994716       -27.0676
   3   2.0000      -0.644658       -17.5420
   4   2.0000      -0.552466       -15.0334
   5   2.0000      -0.097175        -2.6443
   6   2.0000      -0.086564        -2.3555
   7   0.0000      -0.271974        -7.4008
   8   0.0000      -0.271813        -7.3964
   9   0.0000       0.035103         0.9552
  10   0.0000       0.167419         4.5557
  11   0.0000       0.456893        12.4327

MULLIKEN ATOMIC CHARGES
-----------------------
   0 C :    0.673248
   1 N :   -0.798852
   2 H :    0.125604
Sum of atomic charges:   -0.0000000

LOEWDIN ATOMIC CHARGES
----------------------
   0 C :    0.711472
   1 N :   -0.803235
   2 H :    0.091763

  Mayer bond orders larger than 0.1
B(  0-C ,  2-H ) :   0.6302 B(  1-N ,  2-H ) :   0.3385

Dispersion correction           -0.000156504
FINAL SINGLE POINT ENERGY       -92.627542726426

DIPOLE MOMENT
-------------
                                X             Y             Z
Electronic contribution:     -3.68693      -0.10862      -0.00000
Nuclear contribution   :     -3.02400      -0.08930       0.00000
                        -----------------------------------------
Total Dipole Moment    :     -6.71093      -0.19791      -0.00000
                        -----------------------------------------
Magnitude (a.u.)       :      6.71385
Magnitude (Debye)      :     17.06524

                             ****ORCA TERMINATED NORMALLY****
TOTAL RUN TIME: 0 days 0 hours 0 minutes 12 seconds 573 msec
