                         Program Version 4.0.0.2 - RELEASE -
|  1> ! WB97X-D3 6-31G(d) VerySlowConv
|  2> ! KDIIS NOSOSCF
|  3> %base "Scan_38"
|  4>
|  5> %scf
|  6> maxiter 999
|  7> end
|  8>
|  9> * xyz 0 1
| 10> C         -4.537282998340    0.369563466061    0.000000000000
| 11> N         -0.254938387704    0.496124700974    0.000000000000
| 12> H         -5.647558613957    0.336841832966   -0.000000000000
| 13> **                         ****END OF INPUT****

CARTESIAN COORDINATES (ANGSTROEM)
---------------------------------
  C     -4.537283    0.369563    0.000000
  N     -0.254938    0.496125    0.000000
  H     -5.647559    0.336842   -0.000000

 Total Charge           Charge          ....    0
 Multiplicity           Mult            ....    1
 Number of Electrons    NEL             ....   14
 Basis Dimension        Dim             ....   30

ORBITAL ENERGIES
----------------

  NO   OCC          E(Eh)            E(eV)
   0   2.0000     -14.160607      -385.3297
   1   2.0000     -10.784701      -293.4666
   2   2.0000      -1.042356       -28.3640
   3   2.0000      -0.683464       -18.5980
   4   2.0000      -0.484115       -13.1734
   5   2.0000      -0.032729        -0.8906
   6   2.0000      -0.031764        -0.8643
   7   0.0000      -0.309978        -8.4349
   8   0.0000      -0.309837        -8.4311
   9   0.0000       0.012184         0.3316
  10   0.0000       0.230063         6.2603
  11   0.0000       0.425654        11.5826

MULLIKEN ATOMIC CHARGES
-----------------------
   0 C :    0.684640
   1 N :   -0.983566
   2 H :    0.298927
Sum of atomic charges:   -0.0000000

LOEWDIN ATOMIC CHARGES
----------------------
   0 C :    0.779669
   1 N :   -0.983318
   2 H :    0.203650

  Mayer bond orders larger than 0.1
B(  0-C ,  2-H ) :   0.8223

Dispersion correction           -0.000141477
FINAL SINGLE POINT ENERGY       -92.613332217621

DIPOLE MOMENT
-------------
                                X             Y             Z
Electronic contribution:     -5.59610      -0.17081       0.00000
Nuclear contribution   :     -3.07343      -0.09075       0.00000
                        -----------------------------------------
Total Dipole Moment    :     -8.66953      -0.26156       0.00000
                        -----------------------------------------
Magnitude (a.u.)       :      8.67347
Magnitude (Debye)      :     22.04621

                             ****ORCA TERMINATED NORMALLY****
TOTAL RUN TIME: 0 days 0 hours 0 minutes 7 seconds 716 msec
