                         Program Version 4.0.0.2 - RELEASE -
|  1> ! WB97X-D3 6-31G(d) VerySlowConv
|  2> ! KDIIS NOSOSCF
|  3> %base "Scan_39"
|  4>
|  5> %scf
|  6> maxiter 999
|  7> end
|  8>
|  9> * xyz 0 1
| 10> C         -4.571362053809    0.368552600952   -0.000000000000
| 11> N         -0.186790167375    0.498137703714    0.000000000000
| 12> H         -5.681627778817    0.335839695334    0.000000000000
| 13> **                         ****END OF INPUT****

CARTESIAN COORDINATES (ANGSTROEM)
---------------------------------
  C     -4.571362    0.368553   -0.000000
  N     -0.186790    0.498138    0.000000
  H     -5.681628    0.335840    0.000000

 Total Charge           Charge          ....    0
 Multiplicity           Mult            ....    1
 Number of Electrons    NEL             ....   14
 Basis Dimension        Dim             ....   30

ORBITAL ENERGIES
----------------

  NO   OCC          E(Eh)            E(eV)
   0   2.0000     -14.155755      -385.1977
   1   2.0000     -10.789469      -293.5964
   2   2.0000      -1.046401       -28.4740
   3   2.0000      -0.687805       -18.7161
   4   2.0000      -0.479786       -13.0556
   5   2.0000      -0.028971        -0.7883
   6   2.0000      -0.027602        -0.7511
   7   0.0000      -0.313942        -8.5428
   8   0.0000      -0.313811        -8.5392
   9   0.0000       0.009484         0.2581
  10   0.0000       0.234439         6.3794
  11   0.0000       0.422029        11.4840

MULLIKEN ATOMIC CHARGES
-----------------------
   0 C :    0.684498
   1 N :   -0.988820
   2 H :    0.304322
Sum of atomic charges:   -0.0000000

LOEWDIN ATOMIC CHARGES
----------------------
   0 C :    0.781678
   1 N :   -0.988683
   2 H :    0.207005

  Mayer bond orders larger than 0.1
B(  0-C ,  2-H ) :   0.8255

Dispersion correction           -0.000126903
FINAL SINGLE POINT ENERGY       -92.610982601832

DIPOLE MOMENT
-------------
                                X             Y             Z
Electronic contribution:     -5.79652      -0.17180       0.00000
Nuclear contribution   :     -3.12286      -0.09220       0.00000
                        -----------------------------------------
Total Dipole Moment    :     -8.91938      -0.26401       0.00000
                        -----------------------------------------
Magnitude (a.u.)       :      8.92329
Magnitude (Debye)      :     22.68119

                             ****ORCA TERMINATED NORMALLY****
TOTAL RUN TIME: 0 days 0 hours 0 minutes 18 seconds 247 msec
