                         Program Version 4.0.0.2 - RELEASE -
|  1> ! WB97X-D3 6-31G(d) VerySlowConv
|  2> ! KDIIS NOSOSCF
|  3> %base "Scan_4"
|  4>
|  5> %scf
|  6> maxiter 999
|  7> end
|  8>
|  9> * xyz 0 1
| 10> C         -3.480499560095    0.400826256808   -0.000000000000
| 11> N         -2.415834723965    0.432286255329    0.000000000000
| 12> H         -4.543445715941    0.369417487864   -0.000000000000
| 13> **                         ****END OF INPUT****

CARTESIAN COORDINATES (ANGSTROEM)
---------------------------------
  C     -3.480500    0.400826   -0.000000
  N     -2.415835    0.432286    0.000000
  H     -4.543446    0.369417   -0.000000

 Total Charge           Charge          ....    0
 Multiplicity           Mult            ....    1
 Number of Electrons    NEL             ....   14
 Basis Dimension        Dim             ....   30

ORBITAL ENERGIES
----------------

  NO   OCC          E(Eh)            E(eV)
   0   2.0000     -14.435583      -392.8122
   1   2.0000     -10.315956      -280.7114
   2   2.0000      -1.064579       -28.9687
   3   2.0000      -0.704621       -19.1737
   4   2.0000      -0.477987       -13.0067
   5   2.0000      -0.477981       -13.0065
   6   2.0000      -0.470683       -12.8079
   7   0.0000       0.149262         4.0616
   8   0.0000       0.149272         4.0619
   9   0.0000       0.190256         5.1771
  10   0.0000       0.366902         9.9839
  11   0.0000       0.616036        16.7632

MULLIKEN ATOMIC CHARGES
-----------------------
   0 C :   -0.029697
   1 N :   -0.241644
   2 H :    0.271341
Sum of atomic charges:   -0.0000000

LOEWDIN ATOMIC CHARGES
----------------------
   0 C :   -0.134372
   1 N :   -0.042172
   2 H :    0.176544

  Mayer bond orders larger than 0.1
B(  0-C ,  1-N ) :   3.1050 B(  0-C ,  2-H ) :   0.8818

Dispersion correction           -0.000016491
FINAL SINGLE POINT ENERGY       -93.365414472796

DIPOLE MOMENT
-------------
                                X             Y             Z
Electronic contribution:      0.31314       0.00921       0.00000
Nuclear contribution   :     -1.47467      -0.04358       0.00000
                        -----------------------------------------
Total Dipole Moment    :     -1.16154      -0.03437       0.00000
                        -----------------------------------------
Magnitude (a.u.)       :      1.16205
Magnitude (Debye)      :      2.95369

                             ****ORCA TERMINATED NORMALLY****
TOTAL RUN TIME: 0 days 0 hours 0 minutes 15 seconds 229 msec
