                         Program Version 4.0.0.2 - RELEASE -
|  1> ! WB97X-D3 6-31G(d) VerySlowConv
|  2> ! KDIIS NOSOSCF
|  3> %base "Scan_40"
|  4>
|  5> %scf
|  6> maxiter 999
|  7> end
|  8>
|  9> * xyz 0 1
| 10> C         -4.605441087806    0.367541375483    0.000000000000
| 11> N         -0.118641481524    0.500150685488    0.000000000000
| 12> H         -5.715697430670    0.334837939030   -0.000000000000
| 13> **                         ****END OF INPUT****

CARTESIAN COORDINATES (ANGSTROEM)
---------------------------------
  C     -4.605441    0.367541    0.000000
  N     -0.118641    0.500151    0.000000
  H     -5.715697    0.334838   -0.000000

 Total Charge           Charge          ....    0
 Multiplicity           Mult            ....    1
 Number of Electrons    NEL             ....   14
 Basis Dimension        Dim             ....   30

ORBITAL ENERGIES
----------------

  NO   OCC          E(Eh)            E(eV)
   0   2.0000     -14.151716      -385.0878
   1   2.0000     -10.794048      -293.7210
   2   2.0000      -1.050301       -28.5801
   3   2.0000      -0.692022       -18.8309
   4   2.0000      -0.475910       -12.9502
   5   2.0000      -0.025447        -0.6925
   6   2.0000      -0.023847        -0.6489
   7   0.0000      -0.317786        -8.6474
   8   0.0000      -0.317669        -8.6442
   9   0.0000       0.006822         0.1856
  10   0.0000       0.238158         6.4806
  11   0.0000       0.418493        11.3878

MULLIKEN ATOMIC CHARGES
-----------------------
   0 C :    0.684162
   1 N :   -0.993478
   2 H :    0.309316
Sum of atomic charges:   -0.0000000

LOEWDIN ATOMIC CHARGES
----------------------
   0 C :    0.783302
   1 N :   -0.993434
   2 H :    0.210132

  Mayer bond orders larger than 0.1
B(  0-C ,  2-H ) :   0.8284

Dispersion correction           -0.000113144
FINAL SINGLE POINT ENERGY       -92.608617640557

DIPOLE MOMENT
-------------
                                X             Y             Z
Electronic contribution:     -5.99236      -0.17691      -0.00000
Nuclear contribution   :     -3.17228      -0.09366       0.00000
                        -----------------------------------------
Total Dipole Moment    :     -9.16464      -0.27057      -0.00000
                        -----------------------------------------
Magnitude (a.u.)       :      9.16864
Magnitude (Debye)      :     23.30482

                             ****ORCA TERMINATED NORMALLY****
TOTAL RUN TIME: 0 days 0 hours 0 minutes 15 seconds 153 msec
