                         Program Version 4.0.0.2 - RELEASE -
|  1> ! WB97X-D3 6-31G(d) VerySlowConv
|  2> ! KDIIS NOSOSCF
|  3> %base "Scan_41"
|  4>
|  5> %scf
|  6> maxiter 999
|  7> end
|  8>
|  9> * xyz 0 1
| 10> C         -4.639520062551    0.366529759992    0.000000000000
| 11> N         -0.050492361995    0.502163643025    0.000000000000
| 12> H         -5.749767575455    0.333836596984   -0.000000000000
| 13> **                         ****END OF INPUT****

CARTESIAN COORDINATES (ANGSTROEM)
---------------------------------
  C     -4.639520    0.366530    0.000000
  N     -0.050492    0.502164    0.000000
  H     -5.749768    0.333837   -0.000000

 Total Charge           Charge          ....    0
 Multiplicity           Mult            ....    1
 Number of Electrons    NEL             ....   14
 Basis Dimension        Dim             ....   30

ORBITAL ENERGIES
----------------

  NO   OCC          E(Eh)            E(eV)
   0   2.0000     -14.148609      -385.0032
   1   2.0000     -10.797835      -293.8240
   2   2.0000      -1.053565       -28.6690
   3   2.0000      -0.695725       -18.9316
   4   2.0000      -0.472828       -12.8663
   5   2.0000      -0.022371        -0.6088
   6   2.0000      -0.020832        -0.5669
   7   0.0000      -0.321116        -8.7380
   8   0.0000      -0.321013        -8.7352
   9   0.0000       0.004404         0.1198
  10   0.0000       0.240883         6.5548
  11   0.0000       0.415361        11.3026

MULLIKEN ATOMIC CHARGES
-----------------------
   0 C :    0.683490
   1 N :   -0.996132
   2 H :    0.312642
Sum of atomic charges:   -0.0000000

LOEWDIN ATOMIC CHARGES
----------------------
   0 C :    0.783902
   1 N :   -0.996123
   2 H :    0.212221

  Mayer bond orders larger than 0.1
B(  0-C ,  2-H ) :   0.8297

Dispersion correction           -0.000100445
FINAL SINGLE POINT ENERGY       -92.606275805278

DIPOLE MOMENT
-------------
                                X             Y             Z
Electronic contribution:     -6.16791      -0.18639      -0.00000
Nuclear contribution   :     -3.22171      -0.09511       0.00000
                        -----------------------------------------
Total Dipole Moment    :     -9.38962      -0.28151      -0.00000
                        -----------------------------------------
Magnitude (a.u.)       :      9.39384
Magnitude (Debye)      :     23.87724

                             ****ORCA TERMINATED NORMALLY****
TOTAL RUN TIME: 0 days 0 hours 0 minutes 9 seconds 460 msec
