                         Program Version 4.0.0.2 - RELEASE -
|  1> ! WB97X-D3 6-31G(d) VerySlowConv
|  2> ! KDIIS NOSOSCF
|  3> %base "Scan_42"
|  4>
|  5> %scf
|  6> maxiter 999
|  7> end
|  8>
|  9> * xyz 0 1
| 10> C         -4.673598931887    0.365517722893    0.000000000000
| 11> N          0.017657096784    0.504176571350    0.000000000000
| 12> H         -5.783838164897    0.332835705758   -0.000000000000
| 13> **                         ****END OF INPUT****

CARTESIAN COORDINATES (ANGSTROEM)
---------------------------------
  C     -4.673599    0.365518    0.000000
  N      0.017657    0.504177    0.000000
  H     -5.783838    0.332836   -0.000000

 Total Charge           Charge          ....    0
 Multiplicity           Mult            ....    1
 Number of Electrons    NEL             ....   14
 Basis Dimension        Dim             ....   30

ORBITAL ENERGIES
----------------

  NO   OCC          E(Eh)            E(eV)
   0   2.0000     -14.145740      -384.9251
   1   2.0000     -10.800803      -293.9048
   2   2.0000      -1.056167       -28.7398
   3   2.0000      -0.698755       -19.0141
   4   2.0000      -0.470185       -12.7944
   5   2.0000      -0.019942        -0.5427
   6   2.0000      -0.018291        -0.4977
   7   0.0000      -0.323836        -8.8120
   8   0.0000      -0.323740        -8.8094
   9   0.0000       0.002339         0.0636
  10   0.0000       0.243655         6.6302
  11   0.0000       0.412752        11.2315

MULLIKEN ATOMIC CHARGES
-----------------------
   0 C :    0.682657
   1 N :   -0.997449
   2 H :    0.314793
Sum of atomic charges:   -0.0000000

LOEWDIN ATOMIC CHARGES
----------------------
   0 C :    0.783877
   1 N :   -0.997448
   2 H :    0.213571

  Mayer bond orders larger than 0.1
B(  0-C ,  2-H ) :   0.8301

Dispersion correction           -0.000088931
FINAL SINGLE POINT ENERGY       -92.604179390558

DIPOLE MOMENT
-------------
                                X             Y             Z
Electronic contribution:     -6.33058      -0.18697      -0.00000
Nuclear contribution   :     -3.27114      -0.09656       0.00000
                        -----------------------------------------
Total Dipole Moment    :     -9.60172      -0.28354      -0.00000
                        -----------------------------------------
Magnitude (a.u.)       :      9.60590
Magnitude (Debye)      :     24.41626

                             ****ORCA TERMINATED NORMALLY****
TOTAL RUN TIME: 0 days 0 hours 0 minutes 20 seconds 666 msec
