                         Program Version 4.0.0.2 - RELEASE -
|  1> ! WB97X-D3 6-31G(d) VerySlowConv
|  2> ! KDIIS NOSOSCF
|  3> %base "Scan_43"
|  4>
|  5> %scf
|  6> maxiter 999
|  7> end
|  8>
|  9> * xyz 0 1
| 10> C         -4.707677653112    0.364505232393    0.000000000000
| 11> N          0.085806789199    0.506189467528    0.000000000000
| 12> H         -5.817909136088    0.331835300079   -0.000000000000
| 13> **                         ****END OF INPUT****

CARTESIAN COORDINATES (ANGSTROEM)
---------------------------------
  C     -4.707678    0.364505    0.000000
  N      0.085807    0.506189    0.000000
  H     -5.817909    0.331835   -0.000000

 Total Charge           Charge          ....    0
 Multiplicity           Mult            ....    1
 Number of Electrons    NEL             ....   14
 Basis Dimension        Dim             ....   30

ORBITAL ENERGIES
----------------

  NO   OCC          E(Eh)            E(eV)
   0   2.0000     -14.143571      -384.8661
   1   2.0000     -10.803746      -293.9849
   2   2.0000      -1.058765       -28.8105
   3   2.0000      -0.701820       -19.0975
   4   2.0000      -0.467886       -12.7318
   5   2.0000      -0.017449        -0.4748
   6   2.0000      -0.016015        -0.4358
   7   0.0000      -0.326572        -8.8865
   8   0.0000      -0.326488        -8.8842
   9   0.0000       0.000240         0.0065
  10   0.0000       0.245593         6.6829
  11   0.0000       0.410111        11.1597

MULLIKEN ATOMIC CHARGES
-----------------------
   0 C :    0.681645
   1 N :   -0.998473
   2 H :    0.316828
Sum of atomic charges:    0.0000000

LOEWDIN ATOMIC CHARGES
----------------------
   0 C :    0.783630
   1 N :   -0.998476
   2 H :    0.214846

  Mayer bond orders larger than 0.1
B(  0-C ,  2-H ) :   0.8304

Dispersion correction           -0.000078627
FINAL SINGLE POINT ENERGY       -92.602022687499

DIPOLE MOMENT
-------------
                                X             Y             Z
Electronic contribution:     -6.48973      -0.19622      -0.00000
Nuclear contribution   :     -3.32057      -0.09802       0.00000
                        -----------------------------------------
Total Dipole Moment    :     -9.81030      -0.29424      -0.00000
                        -----------------------------------------
Magnitude (a.u.)       :      9.81472
Magnitude (Debye)      :     24.94702

                             ****ORCA TERMINATED NORMALLY****
TOTAL RUN TIME: 0 days 0 hours 0 minutes 7 seconds 713 msec
