                         Program Version 4.0.0.2 - RELEASE -
|  1> ! WB97X-D3 6-31G(d) VerySlowConv
|  2> ! KDIIS NOSOSCF
|  3> %base "Scan_44"
|  4>
|  5> %scf
|  6> maxiter 999
|  7> end
|  8>
|  9> * xyz 0 1
| 10> C         -4.741756195183    0.363492249379   -0.000000000000
| 11> N          0.153956636650    0.508202324907   -0.000000000000
| 12> H         -5.851980441467    0.330835425715    0.000000000000
| 13> **                         ****END OF INPUT****

CARTESIAN COORDINATES (ANGSTROEM)
---------------------------------
  C     -4.741756    0.363492   -0.000000
  N      0.153957    0.508202   -0.000000
  H     -5.851980    0.330835    0.000000

 Total Charge           Charge          ....    0
 Multiplicity           Mult            ....    1
 Number of Electrons    NEL             ....   14
 Basis Dimension        Dim             ....   30

ORBITAL ENERGIES
----------------

  NO   OCC          E(Eh)            E(eV)
   0   2.0000     -14.141206      -384.8018
   1   2.0000     -10.806114      -294.0493
   2   2.0000      -1.060903       -28.8686
   3   2.0000      -0.704350       -19.1663
   4   2.0000      -0.465715       -12.6727
   5   2.0000      -0.015466        -0.4208
   6   2.0000      -0.013921        -0.3788
   7   0.0000      -0.328849        -8.9484
   8   0.0000      -0.328770        -8.9463
   9   0.0000      -0.001531        -0.0417
  10   0.0000       0.247983         6.7480
  11   0.0000       0.407885        11.0991

MULLIKEN ATOMIC CHARGES
-----------------------
   0 C :    0.680734
   1 N :   -0.998983
   2 H :    0.318249
Sum of atomic charges:   -0.0000000

LOEWDIN ATOMIC CHARGES
----------------------
   0 C :    0.783251
   1 N :   -0.998985
   2 H :    0.215733

  Mayer bond orders larger than 0.1
B(  0-C ,  2-H ) :   0.8303

Dispersion correction           -0.000069492
FINAL SINGLE POINT ENERGY       -92.600142968959

DIPOLE MOMENT
-------------
                                X             Y             Z
Electronic contribution:     -6.64393      -0.19675      -0.00000
Nuclear contribution   :     -3.37000      -0.09947       0.00000
                        -----------------------------------------
Total Dipole Moment    :    -10.01393      -0.29622      -0.00000
                        -----------------------------------------
Magnitude (a.u.)       :     10.01831
Magnitude (Debye)      :     25.46451

                             ****ORCA TERMINATED NORMALLY****
TOTAL RUN TIME: 0 days 0 hours 0 minutes 9 seconds 497 msec
