                         Program Version 4.0.0.2 - RELEASE -
|  1> ! WB97X-D3 6-31G(d) VerySlowConv
|  2> ! KDIIS NOSOSCF
|  3> %base "Scan_45"
|  4>
|  5> %scf
|  6> maxiter 999
|  7> end
|  8>
|  9> * xyz 0 1
| 10> C         -4.775834538343    0.362478731095    0.000000000000
| 11> N          0.222106577962    0.510215137055    0.000000000000
| 12> H         -5.886052039618    0.329836131851   -0.000000000000
| 13> **                         ****END OF INPUT****

CARTESIAN COORDINATES (ANGSTROEM)
---------------------------------
  C     -4.775835    0.362479    0.000000
  N      0.222107    0.510215    0.000000
  H     -5.886052    0.329836   -0.000000

 Total Charge           Charge          ....    0
 Multiplicity           Mult            ....    1
 Number of Electrons    NEL             ....   14
 Basis Dimension        Dim             ....   30

ORBITAL ENERGIES
----------------

  NO   OCC          E(Eh)            E(eV)
   0   2.0000     -14.139159      -384.7461
   1   2.0000     -10.808482      -294.1137
   2   2.0000      -1.063037       -28.9267
   3   2.0000      -0.706888       -19.2354
   4   2.0000      -0.463710       -12.6182
   5   2.0000      -0.013458        -0.3662
   6   2.0000      -0.011957        -0.3254
   7   0.0000      -0.331124        -9.0103
   8   0.0000      -0.331052        -9.0084
   9   0.0000      -0.003325        -0.0905
  10   0.0000       0.249950         6.8015
  11   0.0000       0.405655        11.0384

MULLIKEN ATOMIC CHARGES
-----------------------
   0 C :    0.679713
   1 N :   -0.999388
   2 H :    0.319676
Sum of atomic charges:   -0.0000000

LOEWDIN ATOMIC CHARGES
----------------------
   0 C :    0.782771
   1 N :   -0.999390
   2 H :    0.216620

  Mayer bond orders larger than 0.1
B(  0-C ,  2-H ) :   0.8303

Dispersion correction           -0.000061442
FINAL SINGLE POINT ENERGY       -92.598252467435

DIPOLE MOMENT
-------------
                                X             Y             Z
Electronic contribution:     -6.79675      -0.20074      -0.00000
Nuclear contribution   :     -3.41943      -0.10092       0.00000
                        -----------------------------------------
Total Dipole Moment    :    -10.21617      -0.30166      -0.00000
                        -----------------------------------------
Magnitude (a.u.)       :     10.22063
Magnitude (Debye)      :     25.97877

                             ****ORCA TERMINATED NORMALLY****
TOTAL RUN TIME: 0 days 0 hours 0 minutes 37 seconds 846 msec
