                         Program Version 4.0.0.2 - RELEASE -
|  1> ! WB97X-D3 6-31G(d) VerySlowConv
|  2> ! KDIIS NOSOSCF
|  3> %base "Scan_5"
|  4>
|  5> %scf
|  6> maxiter 999
|  7> end
|  8>
|  9> * xyz 0 1
| 10> C         -3.487577748158    0.400617149134    0.000000000000
| 11> N         -2.403219068294    0.432659009812    0.000000000000
| 12> H         -4.548983183547    0.369253841054   -0.000000000000
| 13> **                         ****END OF INPUT****

CARTESIAN COORDINATES (ANGSTROEM)
---------------------------------
  C     -3.487578    0.400617    0.000000
  N     -2.403219    0.432659    0.000000
  H     -4.548983    0.369254   -0.000000

 Total Charge           Charge          ....    0
 Multiplicity           Mult            ....    1
 Number of Electrons    NEL             ....   14
 Basis Dimension        Dim             ....   30

ORBITAL ENERGIES
----------------

  NO   OCC          E(Eh)            E(eV)
   0   2.0000     -14.441540      -392.9743
   1   2.0000     -10.321303      -280.8569
   2   2.0000      -1.058177       -28.7945
   3   2.0000      -0.707189       -19.2436
   4   2.0000      -0.472901       -12.8683
   5   2.0000      -0.472865       -12.8673
   6   2.0000      -0.472857       -12.8671
   7   0.0000       0.141020         3.8373
   8   0.0000       0.141030         3.8376
   9   0.0000       0.189159         5.1473
  10   0.0000       0.368094        10.0163
  11   0.0000       0.617868        16.8130

MULLIKEN ATOMIC CHARGES
-----------------------
   0 C :   -0.022230
   1 N :   -0.250598
   2 H :    0.272829
Sum of atomic charges:   -0.0000000

LOEWDIN ATOMIC CHARGES
----------------------
   0 C :   -0.129746
   1 N :   -0.047314
   2 H :    0.177060

  Mayer bond orders larger than 0.1
B(  0-C ,  1-N ) :   3.0788 B(  0-C ,  2-H ) :   0.8809

Dispersion correction           -0.000017634
FINAL SINGLE POINT ENERGY       -93.375023116392

DIPOLE MOMENT
-------------
                                X             Y             Z
Electronic contribution:      0.31947       0.00939       0.00000
Nuclear contribution   :     -1.48281      -0.04382       0.00000
                        -----------------------------------------
Total Dipole Moment    :     -1.16333      -0.03442       0.00000
                        -----------------------------------------
Magnitude (a.u.)       :      1.16384
Magnitude (Debye)      :      2.95826

                             ****ORCA TERMINATED NORMALLY****
TOTAL RUN TIME: 0 days 0 hours 0 minutes 4 seconds 634 msec
