                         Program Version 4.0.0.2 - RELEASE -
|  1> ! WB97X-D3 6-31G(d) VerySlowConv
|  2> ! KDIIS NOSOSCF
|  3> %base "Scan_6"
|  4>
|  5> %scf
|  6> maxiter 999
|  7> end
|  8>
|  9> * xyz 0 1
| 10> C         -3.495399085791    0.400386070201    0.000000000000
| 11> N         -2.389098843415    0.433076230819   -0.000000000000
| 12> H         -4.555282070794    0.369067698980   -0.000000000000
| 13> **                         ****END OF INPUT****

CARTESIAN COORDINATES (ANGSTROEM)
---------------------------------
  C     -3.495399    0.400386    0.000000
  N     -2.389099    0.433076   -0.000000
  H     -4.555282    0.369068   -0.000000

 Total Charge           Charge          ....    0
 Multiplicity           Mult            ....    1
 Number of Electrons    NEL             ....   14
 Basis Dimension        Dim             ....   30

ORBITAL ENERGIES
----------------

  NO   OCC          E(Eh)            E(eV)
   0   2.0000     -14.448122      -393.1534
   1   2.0000     -10.327272      -281.0194
   2   2.0000      -1.050838       -28.5948
   3   2.0000      -0.709955       -19.3188
   4   2.0000      -0.475236       -12.9318
   5   2.0000      -0.467367       -12.7177
   6   2.0000      -0.467360       -12.7175
   7   0.0000       0.132029         3.5927
   8   0.0000       0.132040         3.5930
   9   0.0000       0.187810         5.1106
  10   0.0000       0.369407        10.0521
  11   0.0000       0.619833        16.8665

MULLIKEN ATOMIC CHARGES
-----------------------
   0 C :   -0.015214
   1 N :   -0.259118
   2 H :    0.274332
Sum of atomic charges:   -0.0000000

LOEWDIN ATOMIC CHARGES
----------------------
   0 C :   -0.124639
   1 N :   -0.053019
   2 H :    0.177658

  Mayer bond orders larger than 0.1
B(  0-C ,  1-N ) :   3.0515 B(  0-C ,  2-H ) :   0.8798

Dispersion correction           -0.000018999
FINAL SINGLE POINT ENERGY       -93.382375069873

DIPOLE MOMENT
-------------
                                X             Y             Z
Electronic contribution:      0.32701       0.00962       0.00000
Nuclear contribution   :     -1.49204      -0.04409       0.00000
                        -----------------------------------------
Total Dipole Moment    :     -1.16503      -0.03447       0.00000
                        -----------------------------------------
Magnitude (a.u.)       :      1.16554
Magnitude (Debye)      :      2.96257

                             ****ORCA TERMINATED NORMALLY****
TOTAL RUN TIME: 0 days 0 hours 0 minutes 4 seconds 673 msec
