                         Program Version 4.0.0.2 - RELEASE -
|  1> ! WB97X-D3 6-31G(d) VerySlowConv
|  2> ! KDIIS NOSOSCF
|  3> %base "Scan_7"
|  4>
|  5> %scf
|  6> maxiter 999
|  7> end
|  8>
|  9> * xyz 0 1
| 10> C         -3.504123566728    0.400128298931    0.000000000000
| 11> N         -2.373263958845    0.433544122359    0.000000000000
| 12> H         -4.562392474427    0.368857578710   -0.000000000000
| 13> **                         ****END OF INPUT****

CARTESIAN COORDINATES (ANGSTROEM)
---------------------------------
  C     -3.504124    0.400128    0.000000
  N     -2.373264    0.433544    0.000000
  H     -4.562392    0.368858   -0.000000

 Total Charge           Charge          ....    0
 Multiplicity           Mult            ....    1
 Number of Electrons    NEL             ....   14
 Basis Dimension        Dim             ....   30

ORBITAL ENERGIES
----------------

  NO   OCC          E(Eh)            E(eV)
   0   2.0000     -14.455363      -393.3504
   1   2.0000     -10.333925      -281.2004
   2   2.0000      -1.042435       -28.3661
   3   2.0000      -0.712978       -19.4011
   4   2.0000      -0.477683       -12.9984
   5   2.0000      -0.461461       -12.5570
   6   2.0000      -0.461455       -12.5568
   7   0.0000       0.122216         3.3257
   8   0.0000       0.122227         3.3260
   9   0.0000       0.186191         5.0665
  10   0.0000       0.370749        10.0886
  11   0.0000       0.621925        16.9235

MULLIKEN ATOMIC CHARGES
-----------------------
   0 C :   -0.008920
   1 N :   -0.266902
   2 H :    0.275822
Sum of atomic charges:    0.0000000

LOEWDIN ATOMIC CHARGES
----------------------
   0 C :   -0.118972
   1 N :   -0.059355
   2 H :    0.178328

  Mayer bond orders larger than 0.1
B(  0-C ,  1-N ) :   3.0235 B(  0-C ,  2-H ) :   0.8786

Dispersion correction           -0.000020639
FINAL SINGLE POINT ENERGY       -93.386930015213

DIPOLE MOMENT
-------------
                                X             Y             Z
Electronic contribution:      0.33594       0.00988       0.00000
Nuclear contribution   :     -1.50246      -0.04440       0.00000
                        -----------------------------------------
Total Dipole Moment    :     -1.16652      -0.03451       0.00000
                        -----------------------------------------
Magnitude (a.u.)       :      1.16703
Magnitude (Debye)      :      2.96635

                             ****ORCA TERMINATED NORMALLY****
TOTAL RUN TIME: 0 days 0 hours 0 minutes 4 seconds 295 msec
