                         Program Version 4.0.0.2 - RELEASE -
|  1> ! WB97X-D3 6-31G(d) VerySlowConv
|  2> ! KDIIS NOSOSCF
|  3> %base "Scan_8"
|  4>
|  5> %scf
|  6> maxiter 999
|  7> end
|  8>
|  9> * xyz 0 1
| 10> C         -3.514041925963    0.399835237234    0.000000000000
| 11> N         -2.354804754120    0.434089566767    0.000000000000
| 12> H         -4.570933319917    0.368605195999   -0.000000000000
| 13> **                         ****END OF INPUT****

CARTESIAN COORDINATES (ANGSTROEM)
---------------------------------
  C     -3.514042    0.399835    0.000000
  N     -2.354805    0.434090    0.000000
  H     -4.570933    0.368605   -0.000000

 Total Charge           Charge          ....    0
 Multiplicity           Mult            ....    1
 Number of Electrons    NEL             ....   14
 Basis Dimension        Dim             ....   30

ORBITAL ENERGIES
----------------

  NO   OCC          E(Eh)            E(eV)
   0   2.0000     -14.463509      -393.5721
   1   2.0000     -10.341524      -281.4072
   2   2.0000      -1.032573       -28.0977
   3   2.0000      -0.716262       -19.4905
   4   2.0000      -0.480290       -13.0694
   5   2.0000      -0.454943       -12.3796
   6   2.0000      -0.454938       -12.3795
   7   0.0000       0.111229         3.0267
   8   0.0000       0.111240         3.0270
   9   0.0000       0.184010         5.0072
  10   0.0000       0.372022        10.1232
  11   0.0000       0.624184        16.9849

MULLIKEN ATOMIC CHARGES
-----------------------
   0 C :   -0.003658
   1 N :   -0.273695
   2 H :    0.277354
Sum of atomic charges:   -0.0000000

LOEWDIN ATOMIC CHARGES
----------------------
   0 C :   -0.112557
   1 N :   -0.066592
   2 H :    0.179149

  Mayer bond orders larger than 0.1
B(  0-C ,  1-N ) :   2.9948 B(  0-C ,  2-H ) :   0.8770

Dispersion correction           -0.000022719
FINAL SINGLE POINT ENERGY       -93.388066445262

DIPOLE MOMENT
-------------
                                X             Y             Z
Electronic contribution:      0.34707       0.01021       0.00000
Nuclear contribution   :     -1.51494      -0.04476       0.00000
                        -----------------------------------------
Total Dipole Moment    :     -1.16787      -0.03455       0.00000
                        -----------------------------------------
Magnitude (a.u.)       :      1.16838
Magnitude (Debye)      :      2.96979

                             ****ORCA TERMINATED NORMALLY****
TOTAL RUN TIME: 0 days 0 hours 0 minutes 4 seconds 818 msec
