                         Program Version 4.0.0.2 - RELEASE -
|  1> ! WB97X-D3 6-31G(d) VerySlowConv
|  2> ! KDIIS NOSOSCF
|  3> %base "Scan_9"
|  4>
|  5> %scf
|  6> maxiter 999
|  7> end
|  8>
|  9> * xyz 0 1
| 10> C         -3.525519804880    0.399496086602    0.000000000000
| 11> N         -2.333189645833    0.434728268388    0.000000000000
| 12> H         -4.581070549288    0.368305645010   -0.000000000000
| 13> **                         ****END OF INPUT****

CARTESIAN COORDINATES (ANGSTROEM)
---------------------------------
  C     -3.525520    0.399496    0.000000
  N     -2.333190    0.434728    0.000000
  H     -4.581071    0.368306   -0.000000

 Total Charge           Charge          ....    0
 Multiplicity           Mult            ....    1
 Number of Electrons    NEL             ....   14
 Basis Dimension        Dim             ....   30

ORBITAL ENERGIES
----------------

  NO   OCC          E(Eh)            E(eV)
   0   2.0000     -14.472689      -393.8219
   1   2.0000     -10.350163      -281.6422
   2   2.0000      -1.020992       -27.7826
   3   2.0000      -0.719918       -19.5900
   4   2.0000      -0.483055       -13.1446
   5   2.0000      -0.447735       -12.1835
   6   2.0000      -0.447730       -12.1834
   7   0.0000       0.098896         2.6911
   8   0.0000       0.098907         2.6914
   9   0.0000       0.181172         4.9299
  10   0.0000       0.372839        10.1455
  11   0.0000       0.626589        17.0504

MULLIKEN ATOMIC CHARGES
-----------------------
   0 C :    0.000017
   1 N :   -0.278867
   2 H :    0.278850
Sum of atomic charges:   -0.0000000

LOEWDIN ATOMIC CHARGES
----------------------
   0 C :   -0.105278
   1 N :   -0.074816
   2 H :    0.180093

  Mayer bond orders larger than 0.1
B(  0-C ,  1-N ) :   2.9663 B(  0-C ,  2-H ) :   0.8751

Dispersion correction           -0.000025383
FINAL SINGLE POINT ENERGY       -93.384724345136

DIPOLE MOMENT
-------------
                                X             Y             Z
Electronic contribution:      0.36102       0.01063      -0.00000
Nuclear contribution   :     -1.52973      -0.04520       0.00000
                        -----------------------------------------
Total Dipole Moment    :     -1.16871      -0.03457      -0.00000
                        -----------------------------------------
Magnitude (a.u.)       :      1.16922
Magnitude (Debye)      :      2.97193

                             ****ORCA TERMINATED NORMALLY****
TOTAL RUN TIME: 0 days 0 hours 0 minutes 4 seconds 11 msec
