                         Program Version 4.0.0.2 - RELEASE -
|  1> ! WB97X-D3 6-31G(d) VerySlowConv
|  2> ! KDIIS NOSOSCF
|  3> %base "Scan_1"
|  4>
|  5> %scf
|  6> maxiter 999
|  7> end
|  8>
|  9> * xyz 0 1
| 10> C         -2.786155724254    2.625847940525   -0.000000000000
| 11> C         -1.738354276082    2.631392059473    0.000000000000
| 12> H         -3.842771686817    2.620261874603    0.000000000000
| 13> H         -0.681738312847    2.636978125399   -0.000000000000
| 14> **                         ****END OF INPUT****

CARTESIAN COORDINATES (ANGSTROEM)
---------------------------------
  C     -2.786156    2.625848   -0.000000
  C     -1.738354    2.631392    0.000000
  H     -3.842772    2.620262    0.000000
  H     -0.681738    2.636978   -0.000000

 Total Charge           Charge          ....    0
 Multiplicity           Mult            ....    1
 Number of Electrons    NEL             ....   14
 Basis Dimension        Dim             ....   32

ORBITAL ENERGIES
----------------

  NO   OCC          E(Eh)            E(eV)
   0   2.0000     -10.249955      -278.9155
   1   2.0000     -10.240993      -278.6716
   2   2.0000      -0.881296       -23.9813
   3   2.0000      -0.649830       -17.6828
   4   2.0000      -0.589182       -16.0325
   5   2.0000      -0.406136       -11.0515
   6   2.0000      -0.406136       -11.0515
   7   0.0000       0.193433         5.2636
   8   0.0000       0.193434         5.2636
   9   0.0000       0.228127         6.2076
  10   0.0000       0.255249         6.9457
  11   0.0000       0.557624        15.1737

MULLIKEN ATOMIC CHARGES
-----------------------
   0 C :   -0.207453
   1 C :   -0.207453
   2 H :    0.207453
   3 H :    0.207453
Sum of atomic charges:   -0.0000000

LOEWDIN ATOMIC CHARGES
----------------------
   0 C :   -0.160010
   1 C :   -0.160010
   2 H :    0.160010
   3 H :    0.160010

  Mayer bond orders larger than 0.1
B(  0-C ,  1-C ) :   3.1309 B(  0-C ,  2-H ) :   0.9000 B(  1-C ,  3-H ) :   0.9000

Dispersion correction           -0.000077330
FINAL SINGLE POINT ENERGY       -77.227607476702

DIPOLE MOMENT
-------------
                                X             Y             Z
Electronic contribution:     -0.00000      -0.00000       0.00000
Nuclear contribution   :      0.00000       0.00000       0.00000
                        -----------------------------------------
Total Dipole Moment    :     -0.00000      -0.00000       0.00000
                        -----------------------------------------
Magnitude (a.u.)       :      0.00000
Magnitude (Debye)      :      0.00000

                             ****ORCA TERMINATED NORMALLY****
TOTAL RUN TIME: 0 days 0 hours 0 minutes 3 seconds 942 msec
