                         Program Version 4.0.0.2 - RELEASE -
|  1> ! WB97X-D3 6-31G(d) VerySlowConv
|  2> ! KDIIS NOSOSCF
|  3> %base "Scan_10"
|  4>
|  5> %scf
|  6> maxiter 999
|  7> end
|  8>
|  9> * xyz 0 1
| 10> C         -2.898468535974    2.625254086027   -0.000000000008
| 11> C         -1.626041501920    2.631985913772    0.000000000008
| 12> H         -3.945762645102    2.619714232809   -0.000000000006
| 13> H         -0.578747317004    2.637525767392    0.000000000006
| 14> **                         ****END OF INPUT****

CARTESIAN COORDINATES (ANGSTROEM)
---------------------------------
  C     -2.898469    2.625254   -0.000000
  C     -1.626042    2.631986    0.000000
  H     -3.945763    2.619714   -0.000000
  H     -0.578747    2.637526    0.000000

 Total Charge           Charge          ....    0
 Multiplicity           Mult            ....    1
 Number of Electrons    NEL             ....   14
 Basis Dimension        Dim             ....   32

ORBITAL ENERGIES
----------------

  NO   OCC          E(Eh)            E(eV)
   0   2.0000     -10.304025      -280.3868
   1   2.0000     -10.302679      -280.3501
   2   2.0000      -0.846558       -23.0360
   3   2.0000      -0.682672       -18.5765
   4   2.0000      -0.591409       -16.0931
   5   2.0000      -0.366586        -9.9753
   6   2.0000      -0.366586        -9.9753
   7   0.0000       0.120423         3.2769
   8   0.0000       0.120424         3.2769
   9   0.0000       0.198649         5.4055
  10   0.0000       0.254817         6.9339
  11   0.0000       0.496317        13.5055

MULLIKEN ATOMIC CHARGES
-----------------------
   0 C :   -0.235434
   1 C :   -0.235438
   2 H :    0.235436
   3 H :    0.235436
Sum of atomic charges:   -0.0000000

LOEWDIN ATOMIC CHARGES
----------------------
   0 C :   -0.174368
   1 C :   -0.174371
   2 H :    0.174369
   3 H :    0.174370

  Mayer bond orders larger than 0.1
B(  0-C ,  1-C ) :   3.0189 B(  0-C ,  2-H ) :   0.9050 B(  1-C ,  3-H ) :   0.9050

Dispersion correction           -0.000095248
FINAL SINGLE POINT ENERGY       -77.285590882526

DIPOLE MOMENT
-------------
                                X             Y             Z
Electronic contribution:     -0.00000      -0.00000      -0.00000
Nuclear contribution   :      0.00000       0.00000       0.00000
                        -----------------------------------------
Total Dipole Moment    :     -0.00000      -0.00000      -0.00000
                        -----------------------------------------
Magnitude (a.u.)       :      0.00000
Magnitude (Debye)      :      0.00001

                             ****ORCA TERMINATED NORMALLY****
TOTAL RUN TIME: 0 days 0 hours 0 minutes 3 seconds 684 msec
