                         Program Version 4.0.0.2 - RELEASE -
|  1> ! WB97X-D3 6-31G(d) VerySlowConv
|  2> ! KDIIS NOSOSCF
|  3> %base "Scan_11"
|  4>
|  5> %scf
|  6> maxiter 999
|  7> end
|  8>
|  9> * xyz 0 1
| 10> C         -2.921380474146    2.625132887370   -0.000000000008
| 11> C         -1.603129470599    2.632107112924    0.000000000008
| 12> H         -3.967744213233    2.619597938054   -0.000000000007
| 13> H         -0.556765842022    2.637642061651    0.000000000007
| 14> **                         ****END OF INPUT****

CARTESIAN COORDINATES (ANGSTROEM)
---------------------------------
  C     -2.921380    2.625133   -0.000000
  C     -1.603129    2.632107    0.000000
  H     -3.967744    2.619598   -0.000000
  H     -0.556766    2.637642    0.000000

 Total Charge           Charge          ....    0
 Multiplicity           Mult            ....    1
 Number of Electrons    NEL             ....   14
 Basis Dimension        Dim             ....   32

ORBITAL ENERGIES
----------------

  NO   OCC          E(Eh)            E(eV)
   0   2.0000     -10.315009      -280.6857
   1   2.0000     -10.314075      -280.6603
   2   2.0000      -0.838927       -22.8284
   3   2.0000      -0.688146       -18.7254
   4   2.0000      -0.589719       -16.0471
   5   2.0000      -0.360197        -9.8015
   6   2.0000      -0.360197        -9.8015
   7   0.0000       0.107393         2.9223
   8   0.0000       0.107394         2.9223
   9   0.0000       0.190479         5.1832
  10   0.0000       0.254380         6.9220
  11   0.0000       0.475503        12.9391

MULLIKEN ATOMIC CHARGES
-----------------------
   0 C :   -0.240392
   1 C :   -0.240396
   2 H :    0.240394
   3 H :    0.240394
Sum of atomic charges:    0.0000000

LOEWDIN ATOMIC CHARGES
----------------------
   0 C :   -0.177091
   1 C :   -0.177094
   2 H :    0.177092
   3 H :    0.177093

  Mayer bond orders larger than 0.1
B(  0-C ,  1-C ) :   3.0073 B(  0-C ,  2-H ) :   0.9032 B(  1-C ,  3-H ) :   0.9032

Dispersion correction           -0.000101046
FINAL SINGLE POINT ENERGY       -77.271703349848

DIPOLE MOMENT
-------------
                                X             Y             Z
Electronic contribution:     -0.00000      -0.00000       0.00000
Nuclear contribution   :     -0.00000      -0.00000       0.00000
                        -----------------------------------------
Total Dipole Moment    :     -0.00000      -0.00000       0.00000
                        -----------------------------------------
Magnitude (a.u.)       :      0.00000
Magnitude (Debye)      :      0.00001

                             ****ORCA TERMINATED NORMALLY****
TOTAL RUN TIME: 0 days 0 hours 0 minutes 3 seconds 385 msec
