                         Program Version 4.0.0.2 - RELEASE -
|  1> ! WB97X-D3 6-31G(d) VerySlowConv
|  2> ! KDIIS NOSOSCF
|  3> %base "Scan_12"
|  4>
|  5> %scf
|  6> maxiter 999
|  7> end
|  8>
|  9> * xyz 0 1
| 10> C         -2.949041778019    2.624986523778   -0.000000000008
| 11> C         -1.575467862226    2.632253478105    0.000000000008
| 12> H         -3.993853711898    2.619459827311   -0.000000000008
| 13> H         -0.530656647858    2.637780170805    0.000000000008
| 14> **                         ****END OF INPUT****

CARTESIAN COORDINATES (ANGSTROEM)
---------------------------------
  C     -2.949042    2.624987   -0.000000
  C     -1.575468    2.632253    0.000000
  H     -3.993854    2.619460   -0.000000
  H     -0.530657    2.637780    0.000000

 Total Charge           Charge          ....    0
 Multiplicity           Mult            ....    1
 Number of Electrons    NEL             ....   14
 Basis Dimension        Dim             ....   32

ORBITAL ENERGIES
----------------

  NO   OCC          E(Eh)            E(eV)
   0   2.0000     -10.327548      -281.0269
   1   2.0000     -10.326941      -281.0104
   2   2.0000      -0.830143       -22.5893
   3   2.0000      -0.694473       -18.8976
   4   2.0000      -0.586902       -15.9704
   5   2.0000      -0.353053        -9.6071
   6   2.0000      -0.353053        -9.6071
   7   0.0000       0.092548         2.5184
   8   0.0000       0.092549         2.5184
   9   0.0000       0.179569         4.8863
  10   0.0000       0.253964         6.9107
  11   0.0000       0.450405        12.2561

MULLIKEN ATOMIC CHARGES
-----------------------
   0 C :   -0.245868
   1 C :   -0.245921
   2 H :    0.245893
   3 H :    0.245896
Sum of atomic charges:    0.0000000

LOEWDIN ATOMIC CHARGES
----------------------
   0 C :   -0.180156
   1 C :   -0.180199
   2 H :    0.180177
   3 H :    0.180179

  Mayer bond orders larger than 0.1
B(  0-C ,  1-C ) :   2.9955 B(  0-C ,  2-H ) :   0.9004 B(  1-C ,  3-H ) :   0.9004

Dispersion correction           -0.000109235
FINAL SINGLE POINT ENERGY       -77.249084775344

DIPOLE MOMENT
-------------
                                X             Y             Z
Electronic contribution:     -0.00005      -0.00000      -0.00000
Nuclear contribution   :     -0.00000      -0.00000       0.00000
                        -----------------------------------------
Total Dipole Moment    :     -0.00005      -0.00000      -0.00000
                        -----------------------------------------
Magnitude (a.u.)       :      0.00005
Magnitude (Debye)      :      0.00014

                             ****ORCA TERMINATED NORMALLY****
TOTAL RUN TIME: 0 days 0 hours 0 minutes 3 seconds 280 msec
