                         Program Version 4.0.0.2 - RELEASE -
|  1> ! WB97X-D3 6-31G(d) VerySlowConv
|  2> ! KDIIS NOSOSCF
|  3> %base "Scan_13"
|  4>
|  5> %scf
|  6> maxiter 999
|  7> end
|  8>
|  9> * xyz 0 1
| 10> C         -2.983198463904    2.624805679825   -0.000000000011
| 11> C         -1.541311538492    2.632434320148    0.000000000011
| 12> H         -4.027389106147    2.619282522742   -0.000000000009
| 13> H         -0.497120891458    2.637957477285    0.000000000009
| 14> **                         ****END OF INPUT****

CARTESIAN COORDINATES (ANGSTROEM)
---------------------------------
  C     -2.983198    2.624806   -0.000000
  C     -1.541312    2.632434    0.000000
  H     -4.027389    2.619283   -0.000000
  H     -0.497121    2.637957    0.000000

 Total Charge           Charge          ....    0
 Multiplicity           Mult            ....    1
 Number of Electrons    NEL             ....   14
 Basis Dimension        Dim             ....   32

ORBITAL ENERGIES
----------------

  NO   OCC          E(Eh)            E(eV)
   0   2.0000     -10.341999      -281.4201
   1   2.0000     -10.341637      -281.4102
   2   2.0000      -0.820090       -22.3158
   3   2.0000      -0.701308       -19.0836
   4   2.0000      -0.581871       -15.8335
   5   2.0000      -0.345009        -9.3882
   6   2.0000      -0.345009        -9.3882
   7   0.0000       0.075576         2.0565
   8   0.0000       0.075577         2.0566
   9   0.0000       0.163504         4.4492
  10   0.0000       0.253024         6.8851
  11   0.0000       0.420739        11.4489

MULLIKEN ATOMIC CHARGES
-----------------------
   0 C :   -0.252553
   1 C :   -0.252552
   2 H :    0.252552
   3 H :    0.252552
Sum of atomic charges:   -0.0000000

LOEWDIN ATOMIC CHARGES
----------------------
   0 C :   -0.183925
   1 C :   -0.183924
   2 H :    0.183925
   3 H :    0.183925

  Mayer bond orders larger than 0.1
B(  0-C ,  1-C ) :   2.9841 B(  0-C ,  2-H ) :   0.8957 B(  1-C ,  3-H ) :   0.8957

Dispersion correction           -0.000121520
FINAL SINGLE POINT ENERGY       -77.215232910623

DIPOLE MOMENT
-------------
                                X             Y             Z
Electronic contribution:      0.00000       0.00000      -0.00000
Nuclear contribution   :      0.00000       0.00000       0.00000
                        -----------------------------------------
Total Dipole Moment    :      0.00000       0.00000      -0.00000
                        -----------------------------------------
Magnitude (a.u.)       :      0.00000
Magnitude (Debye)      :      0.00000

                             ****ORCA TERMINATED NORMALLY****
TOTAL RUN TIME: 0 days 0 hours 0 minutes 3 seconds 364 msec
