                         Program Version 4.0.0.2 - RELEASE -
|  1> ! WB97X-D3 6-31G(d) VerySlowConv
|  2> ! KDIIS NOSOSCF
|  3> %base "Scan_14"
|  4>
|  5> %scf
|  6> maxiter 999
|  7> end
|  8>
|  9> * xyz 0 1
| 10> C         -3.026911265723    2.624573947641   -0.000000000017
| 11> C         -1.497598971948    2.632666051094    0.000000000017
| 12> H         -4.070312518580    2.619055913303   -0.000000000011
| 13> H         -0.454197243749    2.638184087962    0.000000000011
| 14> **                         ****END OF INPUT****

CARTESIAN COORDINATES (ANGSTROEM)
---------------------------------
  C     -3.026911    2.624574   -0.000000
  C     -1.497599    2.632666    0.000000
  H     -4.070313    2.619056   -0.000000
  H     -0.454197    2.638184    0.000000

 Total Charge           Charge          ....    0
 Multiplicity           Mult            ....    1
 Number of Electrons    NEL             ....   14
 Basis Dimension        Dim             ....   32

ORBITAL ENERGIES
----------------

  NO   OCC          E(Eh)            E(eV)
   0   2.0000     -10.358426      -281.8671
   1   2.0000     -10.358221      -281.8615
   2   2.0000      -0.809069       -22.0159
   3   2.0000      -0.709184       -19.2979
   4   2.0000      -0.573612       -15.6088
   5   2.0000      -0.335827        -9.1383
   6   2.0000      -0.335827        -9.1383
   7   0.0000       0.055902         1.5212
   8   0.0000       0.055903         1.5212
   9   0.0000       0.139394         3.7931
  10   0.0000       0.251833         6.8527
  11   0.0000       0.386720        10.5232

MULLIKEN ATOMIC CHARGES
-----------------------
   0 C :   -0.260313
   1 C :   -0.260170
   2 H :    0.260245
   3 H :    0.260238
Sum of atomic charges:   -0.0000000

LOEWDIN ATOMIC CHARGES
----------------------
   0 C :   -0.188328
   1 C :   -0.188204
   2 H :    0.188268
   3 H :    0.188264

  Mayer bond orders larger than 0.1
B(  0-C ,  1-C ) :   2.9714 B(  0-C ,  2-H ) :   0.8886 B(  1-C ,  3-H ) :   0.8886

Dispersion correction           -0.000140593
FINAL SINGLE POINT ENERGY       -77.166149014098

DIPOLE MOMENT
-------------
                                X             Y             Z
Electronic contribution:      0.00017       0.00000      -0.00000
Nuclear contribution   :      0.00000       0.00000       0.00000
                        -----------------------------------------
Total Dipole Moment    :      0.00017       0.00000      -0.00000
                        -----------------------------------------
Magnitude (a.u.)       :      0.00017
Magnitude (Debye)      :      0.00044

                             ****ORCA TERMINATED NORMALLY****
TOTAL RUN TIME: 0 days 0 hours 0 minutes 3 seconds 341 msec
