                         Program Version 4.0.0.2 - RELEASE -
|  1> ! WB97X-D3 6-31G(d) VerySlowConv
|  2> ! KDIIS NOSOSCF
|  3> %base "Scan_15"
|  4>
|  5> %scf
|  6> maxiter 999
|  7> end
|  8>
|  9> * xyz 0 1
| 10> C         -3.083502347375    2.624272908359   -0.000000000035
| 11> C         -1.441007428062    2.632967092770    0.000000000035
| 12> H         -4.126067964341    2.618763274096   -0.000000000013
| 13> H         -0.398442260223    2.638476724775    0.000000000013
| 14> **                         ****END OF INPUT****

CARTESIAN COORDINATES (ANGSTROEM)
---------------------------------
  C     -3.083502    2.624273   -0.000000
  C     -1.441007    2.632967    0.000000
  H     -4.126068    2.618763   -0.000000
  H     -0.398442    2.638477    0.000000

 Total Charge           Charge          ....    0
 Multiplicity           Mult            ....    1
 Number of Electrons    NEL             ....   14
 Basis Dimension        Dim             ....   32

ORBITAL ENERGIES
----------------

  NO   OCC          E(Eh)            E(eV)
   0   2.0000     -10.376137      -282.3490
   1   2.0000     -10.375944      -282.3438
   2   2.0000      -0.798031       -21.7155
   3   2.0000      -0.718046       -19.5390
   4   2.0000      -0.560627       -15.2554
   5   2.0000      -0.325430        -8.8554
   6   2.0000      -0.325430        -8.8554
   7   0.0000       0.033626         0.9150
   8   0.0000       0.033627         0.9150
   9   0.0000       0.103246         2.8095
  10   0.0000       0.250273         6.8103
  11   0.0000       0.351847         9.5742

MULLIKEN ATOMIC CHARGES
-----------------------
   0 C :   -0.268664
   1 C :   -0.268993
   2 H :    0.268822
   3 H :    0.268836
Sum of atomic charges:   -0.0000000

LOEWDIN ATOMIC CHARGES
----------------------
   0 C :   -0.193007
   1 C :   -0.193302
   2 H :    0.193151
   3 H :    0.193158

  Mayer bond orders larger than 0.1
B(  0-C ,  1-C ) :   2.9557 B(  0-C ,  2-H ) :   0.8786 B(  1-C ,  3-H ) :   0.8786

Dispersion correction           -0.000169826
FINAL SINGLE POINT ENERGY       -77.098662398546

DIPOLE MOMENT
-------------
                                X             Y             Z
Electronic contribution:     -0.00044      -0.00000      -0.00000
Nuclear contribution   :     -0.00000      -0.00000       0.00000
                        -----------------------------------------
Total Dipole Moment    :     -0.00044      -0.00000      -0.00000
                        -----------------------------------------
Magnitude (a.u.)       :      0.00044
Magnitude (Debye)      :      0.00112

                             ****ORCA TERMINATED NORMALLY****
TOTAL RUN TIME: 0 days 0 hours 0 minutes 3 seconds 459 msec
