                         Program Version 4.0.0.2 - RELEASE -
|  1> ! WB97X-D3 6-31G(d) VerySlowConv
|  2> ! KDIIS NOSOSCF
|  3> %base "Scan_17"
|  4>
|  5> %scf
|  6> maxiter 999
|  7> end
|  8>
|  9> * xyz 0 1
| 10> C         -3.236868061279    2.623408500429   -0.000000000299
| 11> C         -1.287642015576    2.633831488063    0.000000000313
| 12> H         -4.284739889651    2.618105229198    0.000000000036
| 13> H         -0.239770033495    2.639134782310   -0.000000000050
| 14> **                         ****END OF INPUT****

CARTESIAN COORDINATES (ANGSTROEM)
---------------------------------
  C     -3.236868    2.623409   -0.000000
  C     -1.287642    2.633831    0.000000
  H     -4.284740    2.618105    0.000000
  H     -0.239770    2.639135   -0.000000

 Total Charge           Charge          ....    0
 Multiplicity           Mult            ....    1
 Number of Electrons    NEL             ....   14
 Basis Dimension        Dim             ....   32

ORBITAL ENERGIES
----------------

  NO   OCC          E(Eh)            E(eV)
   0   2.0000     -10.406850      -283.1848
   1   2.0000     -10.406774      -283.1827
   2   2.0000      -0.779820       -21.2200
   3   2.0000      -0.733691       -19.9648
   4   2.0000      -0.519777       -14.1439
   5   2.0000      -0.302642        -8.2353
   6   2.0000      -0.302642        -8.2353
   7   0.0000      -0.011414        -0.3106
   8   0.0000      -0.011413        -0.3106
   9   0.0000       0.001512         0.0411
  10   0.0000       0.243710         6.6317
  11   0.0000       0.300555         8.1785

MULLIKEN ATOMIC CHARGES
-----------------------
   0 C :   -0.286355
   1 C :   -0.286296
   2 H :    0.286326
   3 H :    0.286325
Sum of atomic charges:    0.0000000

LOEWDIN ATOMIC CHARGES
----------------------
   0 C :   -0.204165
   1 C :   -0.204109
   2 H :    0.204137
   3 H :    0.204137

  Mayer bond orders larger than 0.1
B(  0-C ,  1-C ) :   2.9133 B(  0-C ,  2-H ) :   0.8495 B(  1-C ,  3-H ) :   0.8495

Dispersion correction           -0.000248506
FINAL SINGLE POINT ENERGY       -76.924016526664

DIPOLE MOMENT
-------------
                                X             Y             Z
Electronic contribution:      0.00010       0.00000       0.00000
Nuclear contribution   :      0.00000       0.00000      -0.00000
                        -----------------------------------------
Total Dipole Moment    :      0.00010       0.00000      -0.00000
                        -----------------------------------------
Magnitude (a.u.)       :      0.00010
Magnitude (Debye)      :      0.00025

                             ****ORCA TERMINATED NORMALLY****
TOTAL RUN TIME: 0 days 0 hours 0 minutes 4 seconds 60 msec
