                         Program Version 4.0.0.2 - RELEASE -
|  1> ! WB97X-D3 6-31G(d) VerySlowConv
|  2> ! KDIIS NOSOSCF
|  3> %base "Scan_18"
|  4>
|  5> %scf
|  6> maxiter 999
|  7> end
|  8>
|  9> * xyz 0 1
| 10> C         -3.361997625383    2.622091463318   -0.000000001759
| 11> C         -1.162512375149    2.635148359338    0.000000001851
| 12> H         -4.456533096285    2.621185348566    0.000000000067
| 13> H         -0.067976903183    2.636054828778   -0.000000000159
| 14> **                         ****END OF INPUT****

CARTESIAN COORDINATES (ANGSTROEM)
---------------------------------
  C     -3.361998    2.622091   -0.000000
  C     -1.162512    2.635148    0.000000
  H     -4.456533    2.621185    0.000000
  H     -0.067977    2.636055   -0.000000

 Total Charge           Charge          ....    0
 Multiplicity           Mult            ....    1
 Number of Electrons    NEL             ....   14
 Basis Dimension        Dim             ....   32

ORBITAL ENERGIES
----------------

  NO   OCC          E(Eh)            E(eV)
   0   2.0000     -10.418982      -283.5149
   1   2.0000     -10.418907      -283.5129
   2   2.0000      -0.762308       -20.7434
   3   2.0000      -0.729013       -19.8374
   4   2.0000      -0.483622       -13.1600
   5   2.0000      -0.286453        -7.7948
   6   2.0000      -0.286442        -7.7945
   7   0.0000      -0.067661        -1.8411
   8   0.0000      -0.034250        -0.9320
   9   0.0000      -0.034223        -0.9313
  10   0.0000       0.223998         6.0953
  11   0.0000       0.274109         7.4589

MULLIKEN ATOMIC CHARGES
-----------------------
   0 C :   -0.299896
   1 C :   -0.299897
   2 H :    0.299897
   3 H :    0.299897
Sum of atomic charges:    0.0000000

LOEWDIN ATOMIC CHARGES
----------------------
   0 C :   -0.218984
   1 C :   -0.218984
   2 H :    0.218984
   3 H :    0.218984

  Mayer bond orders larger than 0.1
B(  0-C ,  1-C ) :   2.8692 B(  0-C ,  2-H ) :   0.8168 B(  1-C ,  3-H ) :   0.8168

Dispersion correction           -0.000269815
FINAL SINGLE POINT ENERGY       -76.807887476073

DIPOLE MOMENT
-------------
                                X             Y             Z
Electronic contribution:     -0.00000      -0.00000       0.00000
Nuclear contribution   :      0.00000       0.00000      -0.00000
                        -----------------------------------------
Total Dipole Moment    :     -0.00000       0.00000      -0.00000
                        -----------------------------------------
Magnitude (a.u.)       :      0.00000
Magnitude (Debye)      :      0.00000

                             ****ORCA TERMINATED NORMALLY****
TOTAL RUN TIME: 0 days 0 hours 0 minutes 5 seconds 453 msec
