                         Program Version 4.0.0.2 - RELEASE -
|  1> ! WB97X-D3 6-31G(d) VerySlowConv
|  2> ! KDIIS NOSOSCF
|  3> %base "Scan_19"
|  4>
|  5> %scf
|  6> maxiter 999
|  7> end
|  8>
|  9> * xyz 0 1
| 10> C         -3.393425340540    2.557537480027   -0.000000056302
| 11> C         -1.131105709882    2.699688764983    0.000000048984
| 12> H         -3.729523557219    3.609128064783   -0.000000050263
| 13> H         -0.794965392359    1.648125690206    0.000000057582
| 14> **                         ****END OF INPUT****

CARTESIAN COORDINATES (ANGSTROEM)
---------------------------------
  C     -3.393425    2.557537   -0.000000
  C     -1.131106    2.699689    0.000000
  H     -3.729524    3.609128   -0.000000
  H     -0.794965    1.648126    0.000000

 Total Charge           Charge          ....    0
 Multiplicity           Mult            ....    1
 Number of Electrons    NEL             ....   14
 Basis Dimension        Dim             ....   32

ORBITAL ENERGIES
----------------

  NO   OCC          E(Eh)            E(eV)
   0   2.0000     -10.390124      -282.7297
   1   2.0000     -10.390082      -282.7285
   2   2.0000      -0.762427       -20.7467
   3   2.0000      -0.715803       -19.4780
   4   2.0000      -0.427934       -11.6447
   5   2.0000      -0.395311       -10.7569
   6   2.0000      -0.295765        -8.0482
   7   0.0000      -0.054986        -1.4962
   8   0.0000       0.001797         0.0489
   9   0.0000       0.053424         1.4537
  10   0.0000       0.220682         6.0051
  11   0.0000       0.243447         6.6245

MULLIKEN ATOMIC CHARGES
-----------------------
   0 C :   -0.167926
   1 C :   -0.167991
   2 H :    0.167952
   3 H :    0.167965
Sum of atomic charges:   -0.0000000

LOEWDIN ATOMIC CHARGES
----------------------
   0 C :   -0.115554
   1 C :   -0.115610
   2 H :    0.115578
   3 H :    0.115586

  Mayer bond orders larger than 0.1
B(  0-C ,  1-C ) :   0.9972 B(  0-C ,  2-H ) :   0.9018 B(  1-C ,  3-H ) :   0.9018

Dispersion correction           -0.000240166
FINAL SINGLE POINT ENERGY       -76.954099568123

DIPOLE MOMENT
-------------
                                X             Y             Z
Electronic contribution:     -0.00011      -0.00005       0.00000
Nuclear contribution   :      0.00004       0.00002       0.00000
                        -----------------------------------------
Total Dipole Moment    :     -0.00008      -0.00003       0.00000
                        -----------------------------------------
Magnitude (a.u.)       :      0.00008
Magnitude (Debye)      :      0.00020

                             ****ORCA TERMINATED NORMALLY****
TOTAL RUN TIME: 0 days 0 hours 0 minutes 3 seconds 553 msec
