                         Program Version 4.0.0.2 - RELEASE -
|  1> ! WB97X-D3 6-31G(d) VerySlowConv
|  2> ! KDIIS NOSOSCF
|  3> %base "Scan_20"
|  4>
|  5> %scf
|  6> maxiter 999
|  7> end
|  8>
|  9> * xyz 0 1
| 10> C         -3.451928671349    2.555964627968   -0.000000027337
| 11> C         -1.072581004039    2.701275459049    0.000000083341
| 12> H         -3.750449255576    3.621480924232   -0.000000082714
| 13> H         -0.774061069037    1.635758988751    0.000000026711
| 14> **                         ****END OF INPUT****

CARTESIAN COORDINATES (ANGSTROEM)
---------------------------------
  C     -3.451929    2.555965   -0.000000
  C     -1.072581    2.701275    0.000000
  H     -3.750449    3.621481   -0.000000
  H     -0.774061    1.635759    0.000000

 Total Charge           Charge          ....    0
 Multiplicity           Mult            ....    1
 Number of Electrons    NEL             ....   14
 Basis Dimension        Dim             ....   32

ORBITAL ENERGIES
----------------

  NO   OCC          E(Eh)            E(eV)
   0   2.0000     -10.393476      -282.8209
   1   2.0000     -10.393473      -282.8208
   2   2.0000      -0.757148       -20.6030
   3   2.0000      -0.719027       -19.5657
   4   2.0000      -0.419862       -11.4250
   5   2.0000      -0.396997       -10.8029
   6   2.0000      -0.295302        -8.0356
   7   0.0000      -0.050464        -1.3732
   8   0.0000      -0.003568        -0.0971
   9   0.0000       0.033485         0.9112
  10   0.0000       0.219001         5.9593
  11   0.0000       0.242612         6.6018

MULLIKEN ATOMIC CHARGES
-----------------------
   0 C :   -0.165631
   1 C :   -0.165630
   2 H :    0.165631
   3 H :    0.165631
Sum of atomic charges:   -0.0000000

LOEWDIN ATOMIC CHARGES
----------------------
   0 C :   -0.114611
   1 C :   -0.114611
   2 H :    0.114611
   3 H :    0.114611

  Mayer bond orders larger than 0.1
B(  0-C ,  1-C ) :   1.0001 B(  0-C ,  2-H ) :   0.9034 B(  1-C ,  3-H ) :   0.9034

Dispersion correction           -0.000270154
FINAL SINGLE POINT ENERGY       -76.942934509001

DIPOLE MOMENT
-------------
                                X             Y             Z
Electronic contribution:      0.00000       0.00000       0.00000
Nuclear contribution   :     -0.00000      -0.00000      -0.00000
                        -----------------------------------------
Total Dipole Moment    :      0.00000       0.00000      -0.00000
                        -----------------------------------------
Magnitude (a.u.)       :      0.00000
Magnitude (Debye)      :      0.00000

                             ****ORCA TERMINATED NORMALLY****
TOTAL RUN TIME: 0 days 0 hours 0 minutes 10 seconds 491 msec
