                         Program Version 4.0.0.2 - RELEASE -
|  1> ! WB97X-D3 6-31G(d) VerySlowConv
|  2> ! KDIIS NOSOSCF
|  3> %base "Scan_21"
|  4>
|  5> %scf
|  6> maxiter 999
|  7> end
|  8>
|  9> * xyz 0 1
| 10> C         -3.509408589344    2.556039236111   -0.000000146162
| 11> C         -1.015101526302    2.701200745210   -0.000000030232
| 12> H         -3.771472316463    3.632640920295    0.000000032673
| 13> H         -0.753037567892    1.624599098384    0.000000143721
| 14> **                         ****END OF INPUT****

CARTESIAN COORDINATES (ANGSTROEM)
---------------------------------
  C     -3.509409    2.556039   -0.000000
  C     -1.015102    2.701201   -0.000000
  H     -3.771472    3.632641    0.000000
  H     -0.753038    1.624599    0.000000

 Total Charge           Charge          ....    0
 Multiplicity           Mult            ....    1
 Number of Electrons    NEL             ....   14
 Basis Dimension        Dim             ....   32

ORBITAL ENERGIES
----------------

  NO   OCC          E(Eh)            E(eV)
   0   2.0000     -10.396133      -282.8932
   1   2.0000     -10.396129      -282.8930
   2   2.0000      -0.753428       -20.5018
   3   2.0000      -0.722060       -19.6483
   4   2.0000      -0.414167       -11.2700
   5   2.0000      -0.398558       -10.8453
   6   2.0000      -0.293383        -7.9833
   7   0.0000      -0.046970        -1.2781
   8   0.0000      -0.008100        -0.2204
   9   0.0000       0.016668         0.4536
  10   0.0000       0.218041         5.9332
  11   0.0000       0.241923         6.5831

MULLIKEN ATOMIC CHARGES
-----------------------
   0 C :   -0.164035
   1 C :   -0.164035
   2 H :    0.164035
   3 H :    0.164035
Sum of atomic charges:    0.0000000

LOEWDIN ATOMIC CHARGES
----------------------
   0 C :   -0.114012
   1 C :   -0.114012
   2 H :    0.114012
   3 H :    0.114012

  Mayer bond orders larger than 0.1
B(  0-C ,  1-C ) :   1.0018 B(  0-C ,  2-H ) :   0.9045 B(  1-C ,  3-H ) :   0.9045

Dispersion correction           -0.000296393
FINAL SINGLE POINT ENERGY       -76.931979429406

DIPOLE MOMENT
-------------
                                X             Y             Z
Electronic contribution:     -0.00000      -0.00000      -0.00000
Nuclear contribution   :      0.00000       0.00000       0.00000
                        -----------------------------------------
Total Dipole Moment    :      0.00000       0.00000       0.00000
                        -----------------------------------------
Magnitude (a.u.)       :      0.00000
Magnitude (Debye)      :      0.00000

                             ****ORCA TERMINATED NORMALLY****
TOTAL RUN TIME: 0 days 0 hours 0 minutes 11 seconds 236 msec
