                         Program Version 4.0.0.2 - RELEASE -
|  1> ! WB97X-D3 6-31G(d) VerySlowConv
|  2> ! KDIIS NOSOSCF
|  3> %base "Scan_22"
|  4>
|  5> %scf
|  6> maxiter 999
|  7> end
|  8>
|  9> * xyz 0 1
| 10> C         -3.566176530424    2.554455066446   -0.000000120568
| 11> C         -0.958334271894    2.702784821730    0.000000000593
| 12> H         -3.787516468910    3.641893722064    0.000000003855
| 13> H         -0.736992728773    1.615346389760    0.000000116121
| 14> **                         ****END OF INPUT****

CARTESIAN COORDINATES (ANGSTROEM)
---------------------------------
  C     -3.566177    2.554455   -0.000000
  C     -0.958334    2.702785    0.000000
  H     -3.787516    3.641894    0.000000
  H     -0.736993    1.615346    0.000000

 Total Charge           Charge          ....    0
 Multiplicity           Mult            ....    1
 Number of Electrons    NEL             ....   14
 Basis Dimension        Dim             ....   32

ORBITAL ENERGIES
----------------

  NO   OCC          E(Eh)            E(eV)
   0   2.0000     -10.398473      -282.9568
   1   2.0000     -10.398462      -282.9565
   2   2.0000      -0.750780       -20.4298
   3   2.0000      -0.724599       -19.7173
   4   2.0000      -0.410001       -11.1567
   5   2.0000      -0.400400       -10.8954
   6   2.0000      -0.290798        -7.9130
   7   0.0000      -0.044408        -1.2084
   8   0.0000      -0.012088        -0.3289
   9   0.0000       0.002249         0.0612
  10   0.0000       0.217113         5.9079
  11   0.0000       0.241166         6.5625

MULLIKEN ATOMIC CHARGES
-----------------------
   0 C :   -0.162962
   1 C :   -0.162963
   2 H :    0.162963
   3 H :    0.162963
Sum of atomic charges:   -0.0000000

LOEWDIN ATOMIC CHARGES
----------------------
   0 C :   -0.113712
   1 C :   -0.113713
   2 H :    0.113713
   3 H :    0.113713

  Mayer bond orders larger than 0.1
B(  0-C ,  1-C ) :   1.0027 B(  0-C ,  2-H ) :   0.9055 B(  1-C ,  3-H ) :   0.9055

Dispersion correction           -0.000317192
FINAL SINGLE POINT ENERGY       -76.921682149103

DIPOLE MOMENT
-------------
                                X             Y             Z
Electronic contribution:     -0.00000      -0.00000      -0.00000
Nuclear contribution   :      0.00000       0.00000       0.00000
                        -----------------------------------------
Total Dipole Moment    :     -0.00000      -0.00000       0.00000
                        -----------------------------------------
Magnitude (a.u.)       :      0.00000
Magnitude (Debye)      :      0.00000

                             ****ORCA TERMINATED NORMALLY****
TOTAL RUN TIME: 0 days 0 hours 0 minutes 3 seconds 326 msec
