                         Program Version 4.0.0.2 - RELEASE -
|  1> ! WB97X-D3 6-31G(d) VerySlowConv
|  2> ! KDIIS NOSOSCF
|  3> %base "Scan_23"
|  4>
|  5> %scf
|  6> maxiter 999
|  7> end
|  8>
|  9> * xyz 0 1
| 10> C         -3.622098952669    2.556665499435    0.000000196049
| 11> C         -0.902403180509    2.700575387340    0.000000322261
| 12> H         -3.808158284319    3.650994634027   -0.000000316109
| 13> H         -0.716359582503    1.606244479198   -0.000000202201
| 14> **                         ****END OF INPUT****

CARTESIAN COORDINATES (ANGSTROEM)
---------------------------------
  C     -3.622099    2.556665    0.000000
  C     -0.902403    2.700575    0.000000
  H     -3.808158    3.650995   -0.000000
  H     -0.716360    1.606244   -0.000000

 Total Charge           Charge          ....    0
 Multiplicity           Mult            ....    1
 Number of Electrons    NEL             ....   14
 Basis Dimension        Dim             ....   32

ORBITAL ENERGIES
----------------

  NO   OCC          E(Eh)            E(eV)
   0   2.0000     -10.400195      -283.0037
   1   2.0000     -10.400179      -283.0033
   2   2.0000      -0.749074       -20.3833
   3   2.0000      -0.727199       -19.7881
   4   2.0000      -0.407655       -11.0929
   5   2.0000      -0.401728       -10.9316
   6   2.0000      -0.287271        -7.8170
   7   0.0000      -0.042424        -1.1544
   8   0.0000      -0.015473        -0.4210
   9   0.0000      -0.010255        -0.2790
  10   0.0000       0.217014         5.9053
  11   0.0000       0.240371         6.5408

MULLIKEN ATOMIC CHARGES
-----------------------
   0 C :   -0.162448
   1 C :   -0.162444
   2 H :    0.162446
   3 H :    0.162446
Sum of atomic charges:    0.0000000

LOEWDIN ATOMIC CHARGES
----------------------
   0 C :   -0.113594
   1 C :   -0.113590
   2 H :    0.113592
   3 H :    0.113592

  Mayer bond orders larger than 0.1
B(  0-C ,  1-C ) :   1.0029 B(  0-C ,  2-H ) :   0.9059 B(  1-C ,  3-H ) :   0.9059

Dispersion correction           -0.000333974
FINAL SINGLE POINT ENERGY       -76.911556632589

DIPOLE MOMENT
-------------
                                X             Y             Z
Electronic contribution:      0.00002       0.00000       0.00000
Nuclear contribution   :     -0.00001      -0.00000      -0.00000
                        -----------------------------------------
Total Dipole Moment    :      0.00000       0.00000      -0.00000
                        -----------------------------------------
Magnitude (a.u.)       :      0.00000
Magnitude (Debye)      :      0.00000

                             ****ORCA TERMINATED NORMALLY****
TOTAL RUN TIME: 0 days 0 hours 0 minutes 3 seconds 435 msec
