                         Program Version 4.0.0.2 - RELEASE -
|  1> ! WB97X-D3 6-31G(d) VerySlowConv
|  2> ! KDIIS NOSOSCF
|  3> %base "Scan_24"
|  4>
|  5> %scf
|  6> maxiter 999
|  7> end
|  8>
|  9> * xyz 0 1
| 10> C         -3.677056440401    2.557811123100    0.000000110103
| 11> C         -0.847450082929    2.699429244628    0.000000241306
| 12> H         -3.824740612273    3.658397103258   -0.000000233318
| 13> H         -0.699772864398    1.598842529014   -0.000000118091
| 14> **                         ****END OF INPUT****

CARTESIAN COORDINATES (ANGSTROEM)
---------------------------------
  C     -3.677056    2.557811    0.000000
  C     -0.847450    2.699429    0.000000
  H     -3.824741    3.658397   -0.000000
  H     -0.699773    1.598843   -0.000000

 Total Charge           Charge          ....    0
 Multiplicity           Mult            ....    1
 Number of Electrons    NEL             ....   14
 Basis Dimension        Dim             ....   32

ORBITAL ENERGIES
----------------

  NO   OCC          E(Eh)            E(eV)
   0   2.0000     -10.401659      -283.0435
   1   2.0000     -10.401637      -283.0429
   2   2.0000      -0.747947       -20.3527
   3   2.0000      -0.729413       -19.8483
   4   2.0000      -0.406135       -11.0515
   5   2.0000      -0.403133       -10.9698
   6   2.0000      -0.283607        -7.7173
   7   0.0000      -0.041008        -1.1159
   8   0.0000      -0.021201        -0.5769
   9   0.0000      -0.018458        -0.5023
  10   0.0000       0.216932         5.9030
  11   0.0000       0.239497         6.5170

MULLIKEN ATOMIC CHARGES
-----------------------
   0 C :   -0.162273
   1 C :   -0.162256
   2 H :    0.162266
   3 H :    0.162264
Sum of atomic charges:    0.0000000

LOEWDIN ATOMIC CHARGES
----------------------
   0 C :   -0.113620
   1 C :   -0.113603
   2 H :    0.113613
   3 H :    0.113611

  Mayer bond orders larger than 0.1
B(  0-C ,  1-C ) :   1.0027 B(  0-C ,  2-H ) :   0.9062 B(  1-C ,  3-H ) :   0.9062

Dispersion correction           -0.000347639
FINAL SINGLE POINT ENERGY       -76.902099920895

DIPOLE MOMENT
-------------
                                X             Y             Z
Electronic contribution:      0.00004       0.00001       0.00000
Nuclear contribution   :     -0.00001      -0.00000      -0.00000
                        -----------------------------------------
Total Dipole Moment    :      0.00004       0.00000      -0.00000
                        -----------------------------------------
Magnitude (a.u.)       :      0.00004
Magnitude (Debye)      :      0.00009

                             ****ORCA TERMINATED NORMALLY****
TOTAL RUN TIME: 0 days 0 hours 0 minutes 3 seconds 188 msec
