                         Program Version 4.0.0.2 - RELEASE -
|  1> ! WB97X-D3 6-31G(d) VerySlowConv
|  2> ! KDIIS NOSOSCF
|  3> %base "Scan_25"
|  4>
|  5> %scf
|  6> maxiter 999
|  7> end
|  8>
|  9> * xyz 0 1
| 10> C         -3.731132662589    2.558639879630    0.000000049895
| 11> C         -0.793376734066    2.698601275691    0.000000186019
| 12> H         -3.838502520177    3.664266993809   -0.000000176121
| 13> H         -0.686008083168    1.592971850869   -0.000000059794
| 14> **                         ****END OF INPUT****

CARTESIAN COORDINATES (ANGSTROEM)
---------------------------------
  C     -3.731133    2.558640    0.000000
  C     -0.793377    2.698601    0.000000
  H     -3.838503    3.664267   -0.000000
  H     -0.686008    1.592972   -0.000000

 Total Charge           Charge          ....    0
 Multiplicity           Mult            ....    1
 Number of Electrons    NEL             ....   14
 Basis Dimension        Dim             ....   32

ORBITAL ENERGIES
----------------

  NO   OCC          E(Eh)            E(eV)
   0   2.0000     -10.403003      -283.0801
   1   2.0000     -10.402828      -283.0754
   2   2.0000      -0.747262       -20.3340
   3   2.0000      -0.731360       -19.9013
   4   2.0000      -0.405300       -11.0288
   5   2.0000      -0.404485       -11.0066
   6   2.0000      -0.279908        -7.6167
   7   0.0000      -0.040028        -1.0892
   8   0.0000      -0.030878        -0.8402
   9   0.0000      -0.021102        -0.5742
  10   0.0000       0.216945         5.9034
  11   0.0000       0.238525         6.4906

MULLIKEN ATOMIC CHARGES
-----------------------
   0 C :   -0.162458
   1 C :   -0.162197
   2 H :    0.162346
   3 H :    0.162310
Sum of atomic charges:   -0.0000000

LOEWDIN ATOMIC CHARGES
----------------------
   0 C :   -0.113846
   1 C :   -0.113597
   2 H :    0.113734
   3 H :    0.113709

  Mayer bond orders larger than 0.1
B(  0-C ,  1-C ) :   1.0024 B(  0-C ,  2-H ) :   0.9063 B(  1-C ,  3-H ) :   0.9063

Dispersion correction           -0.000360754
FINAL SINGLE POINT ENERGY       -76.893230411979

DIPOLE MOMENT
-------------
                                X             Y             Z
Electronic contribution:      0.00061       0.00008       0.00000
Nuclear contribution   :     -0.00000      -0.00000      -0.00000
                        -----------------------------------------
Total Dipole Moment    :      0.00061       0.00008      -0.00000
                        -----------------------------------------
Magnitude (a.u.)       :      0.00061
Magnitude (Debye)      :      0.00155

                             ****ORCA TERMINATED NORMALLY****
TOTAL RUN TIME: 0 days 0 hours 0 minutes 3 seconds 151 msec
