                         Program Version 4.0.0.2 - RELEASE -
|  1> ! WB97X-D3 6-31G(d) VerySlowConv
|  2> ! KDIIS NOSOSCF
|  3> %base "Scan_26"
|  4>
|  5> %scf
|  6> maxiter 999
|  7> end
|  8>
|  9> * xyz 0 1
| 10> C         -3.784451602567    2.559286765889    0.000000009502
| 11> C         -0.740058705649    2.697953182281    0.000000150481
| 12> H         -3.849506844670    3.668527541887   -0.000000138601
| 13> H         -0.675002847114    1.588712509943   -0.000000021382
| 14> **                         ****END OF INPUT****

CARTESIAN COORDINATES (ANGSTROEM)
---------------------------------
  C     -3.784452    2.559287    0.000000
  C     -0.740059    2.697953    0.000000
  H     -3.849507    3.668528   -0.000000
  H     -0.675003    1.588713   -0.000000

 Total Charge           Charge          ....    0
 Multiplicity           Mult            ....    1
 Number of Electrons    NEL             ....   14
 Basis Dimension        Dim             ....   32

ORBITAL ENERGIES
----------------

  NO   OCC          E(Eh)            E(eV)
   0   2.0000     -10.403939      -283.1056
   1   2.0000     -10.403917      -283.1050
   2   2.0000      -0.746867       -20.3233
   3   2.0000      -0.733065       -19.9477
   4   2.0000      -0.405717       -11.0401
   5   2.0000      -0.404911       -11.0182
   6   2.0000      -0.276202        -7.5158
   7   0.0000      -0.039510        -1.0751
   8   0.0000      -0.039344        -1.0706
   9   0.0000      -0.023422        -0.6374
  10   0.0000       0.217059         5.9065
  11   0.0000       0.237469         6.4619

MULLIKEN ATOMIC CHARGES
-----------------------
   0 C :   -0.162566
   1 C :   -0.162586
   2 H :    0.162575
   3 H :    0.162578
Sum of atomic charges:    0.0000000

LOEWDIN ATOMIC CHARGES
----------------------
   0 C :   -0.113886
   1 C :   -0.113905
   2 H :    0.113894
   3 H :    0.113896

  Mayer bond orders larger than 0.1
B(  0-C ,  1-C ) :   1.0019 B(  0-C ,  2-H ) :   0.9063 B(  1-C ,  3-H ) :   0.9063

Dispersion correction           -0.000375015
FINAL SINGLE POINT ENERGY       -76.884858418939

DIPOLE MOMENT
-------------
                                X             Y             Z
Electronic contribution:     -0.00005      -0.00001       0.00000
Nuclear contribution   :      0.00000       0.00000      -0.00000
                        -----------------------------------------
Total Dipole Moment    :     -0.00005      -0.00001      -0.00000
                        -----------------------------------------
Magnitude (a.u.)       :      0.00005
Magnitude (Debye)      :      0.00012

                             ****ORCA TERMINATED NORMALLY****
TOTAL RUN TIME: 0 days 0 hours 0 minutes 12 seconds 349 msec
