                         Program Version 4.0.0.2 - RELEASE -
|  1> ! WB97X-D3 6-31G(d) VerySlowConv
|  2> ! KDIIS NOSOSCF
|  3> %base "Scan_27"
|  4>
|  5> %scf
|  6> maxiter 999
|  7> end
|  8>
|  9> * xyz 0 1
| 10> C         -3.837164183497    2.559931084181   -0.000000232009
| 11> C         -0.687345715750    2.697308947249   -0.000000086229
| 12> H         -3.857950895921    3.671139157100    0.000000100159
| 13> H         -0.666559204832    1.586100811470    0.000000218079
| 14> **                         ****END OF INPUT****

CARTESIAN COORDINATES (ANGSTROEM)
---------------------------------
  C     -3.837164    2.559931   -0.000000
  C     -0.687346    2.697309   -0.000000
  H     -3.857951    3.671139    0.000000
  H     -0.666559    1.586101    0.000000

 Total Charge           Charge          ....    0
 Multiplicity           Mult            ....    1
 Number of Electrons    NEL             ....   14
 Basis Dimension        Dim             ....   32

ORBITAL ENERGIES
----------------

  NO   OCC          E(Eh)            E(eV)
   0   2.0000     -10.404711      -283.1266
   1   2.0000     -10.404692      -283.1261
   2   2.0000      -0.746674       -20.3180
   3   2.0000      -0.734570       -19.9887
   4   2.0000      -0.406797       -11.0695
   5   2.0000      -0.404823       -11.0158
   6   2.0000      -0.272541        -7.4162
   7   0.0000      -0.047339        -1.2882
   8   0.0000      -0.038867        -1.0576
   9   0.0000      -0.025456        -0.6927
  10   0.0000       0.217259         5.9119
  11   0.0000       0.236302         6.4301

MULLIKEN ATOMIC CHARGES
-----------------------
   0 C :   -0.162921
   1 C :   -0.162904
   2 H :    0.162914
   3 H :    0.162911
Sum of atomic charges:    0.0000000

LOEWDIN ATOMIC CHARGES
----------------------
   0 C :   -0.114083
   1 C :   -0.114066
   2 H :    0.114075
   3 H :    0.114073

  Mayer bond orders larger than 0.1
B(  0-C ,  1-C ) :   1.0013 B(  0-C ,  2-H ) :   0.9062 B(  1-C ,  3-H ) :   0.9062

Dispersion correction           -0.000390826
FINAL SINGLE POINT ENERGY       -76.876871167924

DIPOLE MOMENT
-------------
                                X             Y             Z
Electronic contribution:      0.00004       0.00001      -0.00000
Nuclear contribution   :     -0.00000      -0.00000       0.00000
                        -----------------------------------------
Total Dipole Moment    :      0.00004       0.00001       0.00000
                        -----------------------------------------
Magnitude (a.u.)       :      0.00004
Magnitude (Debye)      :      0.00011

                             ****ORCA TERMINATED NORMALLY****
TOTAL RUN TIME: 0 days 0 hours 0 minutes 12 seconds 429 msec
