                         Program Version 4.0.0.2 - RELEASE -
|  1> ! WB97X-D3 6-31G(d) VerySlowConv
|  2> ! KDIIS NOSOSCF
|  3> %base "Scan_28"
|  4>
|  5> %scf
|  6> maxiter 999
|  7> end
|  8>
|  9> * xyz 0 1
| 10> C         -3.889423133733    2.560883022854   -0.000000188646
| 11> C         -0.635087069720    2.696356956595   -0.000000038116
| 12> H         -3.864457586928    3.672201196102    0.000000054138
| 13> H         -0.660052209619    1.585038824449    0.000000172624
| 14> **                         ****END OF INPUT****

CARTESIAN COORDINATES (ANGSTROEM)
---------------------------------
  C     -3.889423    2.560883   -0.000000
  C     -0.635087    2.696357   -0.000000
  H     -3.864458    3.672201    0.000000
  H     -0.660052    1.585039    0.000000

 Total Charge           Charge          ....    0
 Multiplicity           Mult            ....    1
 Number of Electrons    NEL             ....   14
 Basis Dimension        Dim             ....   32

ORBITAL ENERGIES
----------------

  NO   OCC          E(Eh)            E(eV)
   0   2.0000     -10.405186      -283.1395
   1   2.0000     -10.405169      -283.1391
   2   2.0000      -0.746588       -20.3157
   3   2.0000      -0.735885       -20.0245
   4   2.0000      -0.407674       -11.0934
   5   2.0000      -0.404901       -11.0179
   6   2.0000      -0.268897        -7.3170
   7   0.0000      -0.054513        -1.4834
   8   0.0000      -0.038505        -1.0478
   9   0.0000      -0.027205        -0.7403
  10   0.0000       0.217541         5.9196
  11   0.0000       0.235013         6.3950

MULLIKEN ATOMIC CHARGES
-----------------------
   0 C :   -0.163247
   1 C :   -0.163263
   2 H :    0.163254
   3 H :    0.163256
Sum of atomic charges:    0.0000000

LOEWDIN ATOMIC CHARGES
----------------------
   0 C :   -0.114213
   1 C :   -0.114229
   2 H :    0.114220
   3 H :    0.114222

  Mayer bond orders larger than 0.1
B(  0-C ,  1-C ) :   1.0007 B(  0-C ,  2-H ) :   0.9060 B(  1-C ,  3-H ) :   0.9060

Dispersion correction           -0.000407062
FINAL SINGLE POINT ENERGY       -76.869215204005

DIPOLE MOMENT
-------------
                                X             Y             Z
Electronic contribution:     -0.00004      -0.00001      -0.00000
Nuclear contribution   :      0.00000       0.00000       0.00000
                        -----------------------------------------
Total Dipole Moment    :     -0.00004      -0.00001       0.00000
                        -----------------------------------------
Magnitude (a.u.)       :      0.00004
Magnitude (Debye)      :      0.00011

                             ****ORCA TERMINATED NORMALLY****
TOTAL RUN TIME: 0 days 0 hours 0 minutes 9 seconds 270 msec
