                         Program Version 4.0.0.2 - RELEASE -
|  1> ! WB97X-D3 6-31G(d) VerySlowConv
|  2> ! KDIIS NOSOSCF
|  3> %base "Scan_3"
|  4>
|  5> %scf
|  6> maxiter 999
|  7> end
|  8>
|  9> * xyz 0 1
| 10> C         -2.803157682673    2.625758038558   -0.000000000000
| 11> C         -1.721352317327    2.631481961442    0.000000000000
| 12> H         -3.857828556442    2.620180785319    0.000000000000
| 13> H         -0.666681443557    2.637059214680   -0.000000000000
| 14> **                         ****END OF INPUT****

CARTESIAN COORDINATES (ANGSTROEM)
---------------------------------
  C     -2.803158    2.625758   -0.000000
  C     -1.721352    2.631482    0.000000
  H     -3.857829    2.620181    0.000000
  H     -0.666681    2.637059   -0.000000

 Total Charge           Charge          ....    0
 Multiplicity           Mult            ....    1
 Number of Electrons    NEL             ....   14
 Basis Dimension        Dim             ....   32

ORBITAL ENERGIES
----------------

  NO   OCC          E(Eh)            E(eV)
   0   2.0000     -10.257197      -279.1125
   1   2.0000     -10.250515      -278.9307
   2   2.0000      -0.877318       -23.8730
   3   2.0000      -0.655477       -17.8364
   4   2.0000      -0.590745       -16.0750
   5   2.0000      -0.399025       -10.8580
   6   2.0000      -0.399025       -10.8580
   7   0.0000       0.181496         4.9388
   8   0.0000       0.181497         4.9388
   9   0.0000       0.224484         6.1085
  10   0.0000       0.255322         6.9477
  11   0.0000       0.559116        15.2143

MULLIKEN ATOMIC CHARGES
-----------------------
   0 C :   -0.212281
   1 C :   -0.212281
   2 H :    0.212281
   3 H :    0.212281
Sum of atomic charges:    0.0000000

LOEWDIN ATOMIC CHARGES
----------------------
   0 C :   -0.162261
   1 C :   -0.162261
   2 H :    0.162261
   3 H :    0.162261

  Mayer bond orders larger than 0.1
B(  0-C ,  1-C ) :   3.1059 B(  0-C ,  2-H ) :   0.9026 B(  1-C ,  3-H ) :   0.9026

Dispersion correction           -0.000079177
FINAL SINGLE POINT ENERGY       -77.256729720048

DIPOLE MOMENT
-------------
                                X             Y             Z
Electronic contribution:      0.00000       0.00000      -0.00000
Nuclear contribution   :      0.00000      -0.00000       0.00000
                        -----------------------------------------
Total Dipole Moment    :      0.00000       0.00000      -0.00000
                        -----------------------------------------
Magnitude (a.u.)       :      0.00000
Magnitude (Debye)      :      0.00000

                             ****ORCA TERMINATED NORMALLY****
TOTAL RUN TIME: 0 days 0 hours 0 minutes 4 seconds 482 msec
