                         Program Version 4.0.0.2 - RELEASE -
|  1> ! WB97X-D3 6-31G(d) VerySlowConv
|  2> ! KDIIS NOSOSCF
|  3> %base "Scan_30"
|  4>
|  5> %scf
|  6> maxiter 999
|  7> end
|  8>
|  9> * xyz 0 1
| 10> C         -3.993099068021    2.565190184910    0.000000074146
| 11> C         -0.531417236870    2.692050280051    0.000000234036
| 12> H         -3.875816393392    3.670813986722   -0.000000213872
| 13> H         -0.648687301716    1.586425548317   -0.000000094310
| 14> **                         ****END OF INPUT****

CARTESIAN COORDINATES (ANGSTROEM)
---------------------------------
  C     -3.993099    2.565190    0.000000
  C     -0.531417    2.692050    0.000000
  H     -3.875816    3.670814   -0.000000
  H     -0.648687    1.586426   -0.000000

 Total Charge           Charge          ....    0
 Multiplicity           Mult            ....    1
 Number of Electrons    NEL             ....   14
 Basis Dimension        Dim             ....   32

ORBITAL ENERGIES
----------------

  NO   OCC          E(Eh)            E(eV)
   0   2.0000     -10.405341      -283.1437
   1   2.0000     -10.405291      -283.1424
   2   2.0000      -0.746519       -20.3138
   3   2.0000      -0.738012       -20.0823
   4   2.0000      -0.408754       -11.1228
   5   2.0000      -0.405282       -11.0283
   6   2.0000      -0.261681        -7.1207
   7   0.0000      -0.067087        -1.8255
   8   0.0000      -0.037901        -1.0313
   9   0.0000      -0.029909        -0.8139
  10   0.0000       0.218300         5.9402
  11   0.0000       0.232117         6.3162

MULLIKEN ATOMIC CHARGES
-----------------------
   0 C :   -0.163576
   1 C :   -0.163649
   2 H :    0.163607
   3 H :    0.163617
Sum of atomic charges:   -0.0000000

LOEWDIN ATOMIC CHARGES
----------------------
   0 C :   -0.114237
   1 C :   -0.114307
   2 H :    0.114269
   3 H :    0.114276

  Mayer bond orders larger than 0.1
B(  0-C ,  1-C ) :   0.9995 B(  0-C ,  2-H ) :   0.9055 B(  1-C ,  3-H ) :   0.9055

Dispersion correction           -0.000430468
FINAL SINGLE POINT ENERGY       -76.854819542181

DIPOLE MOMENT
-------------
                                X             Y             Z
Electronic contribution:     -0.00021      -0.00002       0.00000
Nuclear contribution   :      0.00001      -0.00000      -0.00000
                        -----------------------------------------
Total Dipole Moment    :     -0.00020      -0.00002      -0.00000
                        -----------------------------------------
Magnitude (a.u.)       :      0.00020
Magnitude (Debye)      :      0.00051

                             ****ORCA TERMINATED NORMALLY****
TOTAL RUN TIME: 0 days 0 hours 0 minutes 7 seconds 505 msec
