                         Program Version 4.0.0.2 - RELEASE -
|  1> ! WB97X-D3 6-31G(d) VerySlowConv
|  2> ! KDIIS NOSOSCF
|  3> %base "Scan_31"
|  4>
|  5> %scf
|  6> maxiter 999
|  7> end
|  8>
|  9> * xyz 0 1
| 10> C         -4.044699720825    2.569098169637    0.000000032904
| 11> C         -0.479811704565    2.688143007564    0.000000197407
| 12> H         -3.882853745508    3.669137264384   -0.000000175281
| 13> H         -0.641654829103    1.588101558416   -0.000000055031
| 14> **                         ****END OF INPUT****

CARTESIAN COORDINATES (ANGSTROEM)
---------------------------------
  C     -4.044700    2.569098    0.000000
  C     -0.479812    2.688143    0.000000
  H     -3.882854    3.669137   -0.000000
  H     -0.641655    1.588102   -0.000000

 Total Charge           Charge          ....    0
 Multiplicity           Mult            ....    1
 Number of Electrons    NEL             ....   14
 Basis Dimension        Dim             ....   32

ORBITAL ENERGIES
----------------

  NO   OCC          E(Eh)            E(eV)
   0   2.0000     -10.405118      -283.1376
   1   2.0000     -10.404964      -283.1335
   2   2.0000      -0.746458       -20.3122
   3   2.0000      -0.738840       -20.1049
   4   2.0000      -0.408973       -11.1287
   5   2.0000      -0.405497       -11.0341
   6   2.0000      -0.258108        -7.0235
   7   0.0000      -0.072527        -1.9736
   8   0.0000      -0.037595        -1.0230
   9   0.0000      -0.030903        -0.8409
  10   0.0000       0.218748         5.9524
  11   0.0000       0.230625         6.2756

MULLIKEN ATOMIC CHARGES
-----------------------
   0 C :   -0.163583
   1 C :   -0.163360
   2 H :    0.163487
   3 H :    0.163455
Sum of atomic charges:   -0.0000000

LOEWDIN ATOMIC CHARGES
----------------------
   0 C :   -0.114193
   1 C :   -0.113980
   2 H :    0.114098
   3 H :    0.114075

  Mayer bond orders larger than 0.1
B(  0-C ,  1-C ) :   0.9990 B(  0-C ,  2-H ) :   0.9053 B(  1-C ,  3-H ) :   0.9053

Dispersion correction           -0.000432364
FINAL SINGLE POINT ENERGY       -76.848086675248

DIPOLE MOMENT
-------------
                                X             Y             Z
Electronic contribution:      0.00064       0.00007       0.00000
Nuclear contribution   :      0.00000      -0.00000      -0.00000
                        -----------------------------------------
Total Dipole Moment    :      0.00065       0.00007      -0.00000
                        -----------------------------------------
Magnitude (a.u.)       :      0.00065
Magnitude (Debye)      :      0.00165

                             ****ORCA TERMINATED NORMALLY****
TOTAL RUN TIME: 0 days 0 hours 0 minutes 6 seconds 684 msec
