                         Program Version 4.0.0.2 - RELEASE -
|  1> ! WB97X-D3 6-31G(d) VerySlowConv
|  2> ! KDIIS NOSOSCF
|  3> %base "Scan_32"
|  4>
|  5> %scf
|  6> maxiter 999
|  7> end
|  8>
|  9> * xyz 0 1
| 10> C         -4.096229541942    2.574337841071    0.000000002275
| 11> C         -0.428283590876    2.682902707588    0.000000171347
| 12> H         -3.891925964016    3.667307134825   -0.000000147376
| 13> H         -0.632580903166    1.589932316515   -0.000000026247
| 14> **                         ****END OF INPUT****

CARTESIAN COORDINATES (ANGSTROEM)
---------------------------------
  C     -4.096230    2.574338    0.000000
  C     -0.428284    2.682903    0.000000
  H     -3.891926    3.667307   -0.000000
  H     -0.632581    1.589932   -0.000000

 Total Charge           Charge          ....    0
 Multiplicity           Mult            ....    1
 Number of Electrons    NEL             ....   14
 Basis Dimension        Dim             ....   32

ORBITAL ENERGIES
----------------

  NO   OCC          E(Eh)            E(eV)
   0   2.0000     -10.404581      -283.1230
   1   2.0000     -10.404523      -283.1215
   2   2.0000      -0.746350       -20.3092
   3   2.0000      -0.739523       -20.1234
   4   2.0000      -0.409002       -11.1295
   5   2.0000      -0.405681       -11.0391
   6   2.0000      -0.254584        -6.9276
   7   0.0000      -0.077426        -2.1069
   8   0.0000      -0.037260        -1.0139
   9   0.0000      -0.031676        -0.8620
  10   0.0000       0.219220         5.9653
  11   0.0000       0.229207         6.2370

MULLIKEN ATOMIC CHARGES
-----------------------
   0 C :   -0.163197
   1 C :   -0.163114
   2 H :    0.163162
   3 H :    0.163150
Sum of atomic charges:   -0.0000000

LOEWDIN ATOMIC CHARGES
----------------------
   0 C :   -0.113817
   1 C :   -0.113737
   2 H :    0.113781
   3 H :    0.113773

  Mayer bond orders larger than 0.1
B(  0-C ,  1-C ) :   0.9985 B(  0-C ,  2-H ) :   0.9051 B(  1-C ,  3-H ) :   0.9051

Dispersion correction           -0.000426368
FINAL SINGLE POINT ENERGY       -76.841720680880

DIPOLE MOMENT
-------------
                                X             Y             Z
Electronic contribution:      0.00025       0.00002       0.00000
Nuclear contribution   :      0.00001      -0.00000      -0.00000
                        -----------------------------------------
Total Dipole Moment    :      0.00025       0.00002      -0.00000
                        -----------------------------------------
Magnitude (a.u.)       :      0.00025
Magnitude (Debye)      :      0.00064

                             ****ORCA TERMINATED NORMALLY****
TOTAL RUN TIME: 0 days 0 hours 0 minutes 6 seconds 224 msec
