                         Program Version 4.0.0.2 - RELEASE -
|  1> ! WB97X-D3 6-31G(d) VerySlowConv
|  2> ! KDIIS NOSOSCF
|  3> %base "Scan_33"
|  4>
|  5> %scf
|  6> maxiter 999
|  7> end
|  8>
|  9> * xyz 0 1
| 10> C         -4.147710438788    2.580861309243   -0.000000253936
| 11> C         -0.376803223013    2.676379508694   -0.000000080334
| 12> H         -3.903467484554    3.665607392100    0.000000106021
| 13> H         -0.621038853644    1.591631789963    0.000000228250
| 14> **                         ****END OF INPUT****

CARTESIAN COORDINATES (ANGSTROEM)
---------------------------------
  C     -4.147710    2.580861   -0.000000
  C     -0.376803    2.676380   -0.000000
  H     -3.903467    3.665607    0.000000
  H     -0.621039    1.591632    0.000000

 Total Charge           Charge          ....    0
 Multiplicity           Mult            ....    1
 Number of Electrons    NEL             ....   14
 Basis Dimension        Dim             ....   32

ORBITAL ENERGIES
----------------

  NO   OCC          E(Eh)            E(eV)
   0   2.0000     -10.403974      -283.1065
   1   2.0000     -10.403861      -283.1035
   2   2.0000      -0.746189       -20.3048
   3   2.0000      -0.740073       -20.1384
   4   2.0000      -0.408890       -11.1265
   5   2.0000      -0.405824       -11.0430
   6   2.0000      -0.251125        -6.8335
   7   0.0000      -0.081839        -2.2269
   8   0.0000      -0.036907        -1.0043
   9   0.0000      -0.032265        -0.8780
  10   0.0000       0.219680         5.9778
  11   0.0000       0.227914         6.2018

MULLIKEN ATOMIC CHARGES
-----------------------
   0 C :   -0.162645
   1 C :   -0.162482
   2 H :    0.162575
   3 H :    0.162551
Sum of atomic charges:   -0.0000000

LOEWDIN ATOMIC CHARGES
----------------------
   0 C :   -0.113378
   1 C :   -0.113221
   2 H :    0.113308
   3 H :    0.113291

  Mayer bond orders larger than 0.1
B(  0-C ,  1-C ) :   0.9982 B(  0-C ,  2-H ) :   0.9049 B(  1-C ,  3-H ) :   0.9049

Dispersion correction           -0.000413599
FINAL SINGLE POINT ENERGY       -76.835746747651

DIPOLE MOMENT
-------------
                                X             Y             Z
Electronic contribution:      0.00050       0.00005      -0.00000
Nuclear contribution   :      0.00001      -0.00000       0.00000
                        -----------------------------------------
Total Dipole Moment    :      0.00051       0.00004       0.00000
                        -----------------------------------------
Magnitude (a.u.)       :      0.00051
Magnitude (Debye)      :      0.00129

                             ****ORCA TERMINATED NORMALLY****
TOTAL RUN TIME: 0 days 0 hours 0 minutes 3 seconds 151 msec
