                         Program Version 4.0.0.2 - RELEASE -
|  1> ! WB97X-D3 6-31G(d) VerySlowConv
|  2> ! KDIIS NOSOSCF
|  3> %base "Scan_34"
|  4>
|  5> %scf
|  6> maxiter 999
|  7> end
|  8>
|  9> * xyz 0 1
| 10> C         -4.199150447996    2.588556982823   -0.000000216464
| 11> C         -0.325364170427    2.668684206337   -0.000000038367
| 12> H         -3.917647947288    3.664229733511    0.000000065635
| 13> H         -0.606857434290    1.593009077329    0.000000189196
| 14> **                         ****END OF INPUT****

CARTESIAN COORDINATES (ANGSTROEM)
---------------------------------
  C     -4.199150    2.588557   -0.000000
  C     -0.325364    2.668684   -0.000000
  H     -3.917648    3.664230    0.000000
  H     -0.606857    1.593009    0.000000

 Total Charge           Charge          ....    0
 Multiplicity           Mult            ....    1
 Number of Electrons    NEL             ....   14
 Basis Dimension        Dim             ....   32

ORBITAL ENERGIES
----------------

  NO   OCC          E(Eh)            E(eV)
   0   2.0000     -10.403228      -283.0862
   1   2.0000     -10.403096      -283.0826
   2   2.0000      -0.745974       -20.2990
   3   2.0000      -0.740500       -20.1500
   4   2.0000      -0.408664       -11.1203
   5   2.0000      -0.405916       -11.0455
   6   2.0000      -0.247762        -6.7419
   7   0.0000      -0.085795        -2.3346
   8   0.0000      -0.036534        -0.9941
   9   0.0000      -0.032689        -0.8895
  10   0.0000       0.220100         5.9892
  11   0.0000       0.226784         6.1711

MULLIKEN ATOMIC CHARGES
-----------------------
   0 C :   -0.161862
   1 C :   -0.161673
   2 H :    0.161781
   3 H :    0.161754
Sum of atomic charges:    0.0000000

LOEWDIN ATOMIC CHARGES
----------------------
   0 C :   -0.112797
   1 C :   -0.112616
   2 H :    0.112716
   3 H :    0.112697

  Mayer bond orders larger than 0.1
B(  0-C ,  1-C ) :   0.9981 B(  0-C ,  2-H ) :   0.9048 B(  1-C ,  3-H ) :   0.9048

Dispersion correction           -0.000396008
FINAL SINGLE POINT ENERGY       -76.830176636721

DIPOLE MOMENT
-------------
                                X             Y             Z
Electronic contribution:      0.00059       0.00005      -0.00000
Nuclear contribution   :      0.00001      -0.00000       0.00000
                        -----------------------------------------
Total Dipole Moment    :      0.00060       0.00005       0.00000
                        -----------------------------------------
Magnitude (a.u.)       :      0.00060
Magnitude (Debye)      :      0.00154

                             ****ORCA TERMINATED NORMALLY****
TOTAL RUN TIME: 0 days 0 hours 0 minutes 3 seconds 180 msec
