                         Program Version 4.0.0.2 - RELEASE -
|  1> ! WB97X-D3 6-31G(d) VerySlowConv
|  2> ! KDIIS NOSOSCF
|  3> %base "Scan_35"
|  4>
|  5> %scf
|  6> maxiter 999
|  7> end
|  8>
|  9> * xyz 0 1
| 10> C         -4.250541744034    2.597272039978   -0.000000188586
| 11> C         -0.273968483684    2.659967891108   -0.000000006026
| 12> H         -3.934418611065    3.663279071562    0.000000034746
| 13> H         -0.590091161218    1.593960997352    0.000000159866
| 14> **                         ****END OF INPUT****

CARTESIAN COORDINATES (ANGSTROEM)
---------------------------------
  C     -4.250542    2.597272   -0.000000
  C     -0.273968    2.659968   -0.000000
  H     -3.934419    3.663279    0.000000
  H     -0.590091    1.593961    0.000000

 Total Charge           Charge          ....    0
 Multiplicity           Mult            ....    1
 Number of Electrons    NEL             ....   14
 Basis Dimension        Dim             ....   32

ORBITAL ENERGIES
----------------

  NO   OCC          E(Eh)            E(eV)
   0   2.0000     -10.402389      -283.0634
   1   2.0000     -10.402245      -283.0595
   2   2.0000      -0.745711       -20.2918
   3   2.0000      -0.740817       -20.1587
   4   2.0000      -0.408357       -11.1120
   5   2.0000      -0.405954       -11.0466
   6   2.0000      -0.244514        -6.6536
   7   0.0000      -0.089336        -2.4310
   8   0.0000      -0.036145        -0.9836
   9   0.0000      -0.032976        -0.8973
  10   0.0000       0.220461         5.9990
  11   0.0000       0.225833         6.1452

MULLIKEN ATOMIC CHARGES
-----------------------
   0 C :   -0.160715
   1 C :   -0.160919
   2 H :    0.160802
   3 H :    0.160832
Sum of atomic charges:   -0.0000000

LOEWDIN ATOMIC CHARGES
----------------------
   0 C :   -0.111936
   1 C :   -0.112132
   2 H :    0.112024
   3 H :    0.112044

  Mayer bond orders larger than 0.1
B(  0-C ,  1-C ) :   0.9980 B(  0-C ,  2-H ) :   0.9047 B(  1-C ,  3-H ) :   0.9047

Dispersion correction           -0.000375420
FINAL SINGLE POINT ENERGY       -76.825028604874

DIPOLE MOMENT
-------------
                                X             Y             Z
Electronic contribution:     -0.00067      -0.00005      -0.00000
Nuclear contribution   :      0.00000       0.00000       0.00000
                        -----------------------------------------
Total Dipole Moment    :     -0.00067      -0.00005       0.00000
                        -----------------------------------------
Magnitude (a.u.)       :      0.00067
Magnitude (Debye)      :      0.00170

                             ****ORCA TERMINATED NORMALLY****
TOTAL RUN TIME: 0 days 0 hours 0 minutes 3 seconds 149 msec
