                         Program Version 4.0.0.2 - RELEASE -
|  1> ! WB97X-D3 6-31G(d) VerySlowConv
|  2> ! KDIIS NOSOSCF
|  3> %base "Scan_36"
|  4>
|  5> %scf
|  6> maxiter 999
|  7> end
|  8>
|  9> * xyz 0 1
| 10> C         -4.301881962389    2.606859182744   -0.000000167726
| 11> C         -0.222628099269    2.650380848223    0.000000019271
| 12> H         -3.953623355435    3.662799987176    0.000000010784
| 13> H         -0.570886582907    1.594439981857    0.000000137671
| 14> **                         ****END OF INPUT****

CARTESIAN COORDINATES (ANGSTROEM)
---------------------------------
  C     -4.301882    2.606859   -0.000000
  C     -0.222628    2.650381    0.000000
  H     -3.953623    3.662800    0.000000
  H     -0.570887    1.594440    0.000000

 Total Charge           Charge          ....    0
 Multiplicity           Mult            ....    1
 Number of Electrons    NEL             ....   14
 Basis Dimension        Dim             ....   32

ORBITAL ENERGIES
----------------

  NO   OCC          E(Eh)            E(eV)
   0   2.0000     -10.401438      -283.0375
   1   2.0000     -10.401412      -283.0368
   2   2.0000      -0.745418       -20.2838
   3   2.0000      -0.741045       -20.1648
   4   2.0000      -0.408000       -11.1022
   5   2.0000      -0.405945       -11.0463
   6   2.0000      -0.241418        -6.5693
   7   0.0000      -0.092501        -2.5171
   8   0.0000      -0.035755        -0.9729
   9   0.0000      -0.033153        -0.9021
  10   0.0000       0.220746         6.0068
  11   0.0000       0.225058         6.1241

MULLIKEN ATOMIC CHARGES
-----------------------
   0 C :   -0.159791
   1 C :   -0.159757
   2 H :    0.159776
   3 H :    0.159771
Sum of atomic charges:   -0.0000000

LOEWDIN ATOMIC CHARGES
----------------------
   0 C :   -0.111344
   1 C :   -0.111311
   2 H :    0.111329
   3 H :    0.111326

  Mayer bond orders larger than 0.1
B(  0-C ,  1-C ) :   0.9980 B(  0-C ,  2-H ) :   0.9047 B(  1-C ,  3-H ) :   0.9047

Dispersion correction           -0.000353062
FINAL SINGLE POINT ENERGY       -76.820315456607

DIPOLE MOMENT
-------------
                                X             Y             Z
Electronic contribution:      0.00011       0.00001      -0.00000
Nuclear contribution   :      0.00000      -0.00000       0.00000
                        -----------------------------------------
Total Dipole Moment    :      0.00011       0.00001       0.00000
                        -----------------------------------------
Magnitude (a.u.)       :      0.00011
Magnitude (Debye)      :      0.00029

                             ****ORCA TERMINATED NORMALLY****
TOTAL RUN TIME: 0 days 0 hours 0 minutes 3 seconds 189 msec
