                         Program Version 4.0.0.2 - RELEASE -
|  1> ! WB97X-D3 6-31G(d) VerySlowConv
|  2> ! KDIIS NOSOSCF
|  3> %base "Scan_37"
|  4>
|  5> %scf
|  6> maxiter 999
|  7> end
|  8>
|  9> * xyz 0 1
| 10> C         -4.353162105283    2.617172733453    0.000000072053
| 11> C         -0.171348157445    2.640067353219    0.000000263459
| 12> H         -3.975023541801    3.662788201603   -0.000000232178
| 13> H         -0.549486195472    1.594451711725   -0.000000103334
| 14> **                         ****END OF INPUT****

CARTESIAN COORDINATES (ANGSTROEM)
---------------------------------
  C     -4.353162    2.617173    0.000000
  C     -0.171348    2.640067    0.000000
  H     -3.975024    3.662788   -0.000000
  H     -0.549486    1.594452   -0.000000

 Total Charge           Charge          ....    0
 Multiplicity           Mult            ....    1
 Number of Electrons    NEL             ....   14
 Basis Dimension        Dim             ....   32

ORBITAL ENERGIES
----------------

  NO   OCC          E(Eh)            E(eV)
   0   2.0000     -10.400532      -283.0129
   1   2.0000     -10.400515      -283.0124
   2   2.0000      -0.745104       -20.2753
   3   2.0000      -0.741198       -20.1690
   4   2.0000      -0.407622       -11.0920
   5   2.0000      -0.405901       -11.0451
   6   2.0000      -0.238482        -6.4894
   7   0.0000      -0.095337        -2.5943
   8   0.0000      -0.035374        -0.9626
   9   0.0000      -0.033247        -0.9047
  10   0.0000       0.220947         6.0123
  11   0.0000       0.224438         6.1073

MULLIKEN ATOMIC CHARGES
-----------------------
   0 C :   -0.158644
   1 C :   -0.158661
   2 H :    0.158651
   3 H :    0.158654
Sum of atomic charges:   -0.0000000

LOEWDIN ATOMIC CHARGES
----------------------
   0 C :   -0.110590
   1 C :   -0.110606
   2 H :    0.110597
   3 H :    0.110599

  Mayer bond orders larger than 0.1
B(  0-C ,  1-C ) :   0.9981 B(  0-C ,  2-H ) :   0.9048 B(  1-C ,  3-H ) :   0.9048

Dispersion correction           -0.000329629
FINAL SINGLE POINT ENERGY       -76.816026375413

DIPOLE MOMENT
-------------
                                X             Y             Z
Electronic contribution:     -0.00006      -0.00000       0.00000
Nuclear contribution   :      0.00000      -0.00000      -0.00000
                        -----------------------------------------
Total Dipole Moment    :     -0.00006      -0.00000      -0.00000
                        -----------------------------------------
Magnitude (a.u.)       :      0.00006
Magnitude (Debye)      :      0.00015

                             ****ORCA TERMINATED NORMALLY****
TOTAL RUN TIME: 0 days 0 hours 0 minutes 3 seconds 83 msec
