                         Program Version 4.0.0.2 - RELEASE -
|  1> ! WB97X-D3 6-31G(d) VerySlowConv
|  2> ! KDIIS NOSOSCF
|  3> %base "Scan_38"
|  4>
|  5> %scf
|  6> maxiter 999
|  7> end
|  8>
|  9> * xyz 0 1
| 10> C         -4.404377602453    2.628093838332    0.000000028244
| 11> C         -0.120132479114    2.629146202586    0.000000224039
| 12> H         -3.998383406082    3.663218284470   -0.000000191625
| 13> H         -0.526126512351    1.594021674613   -0.000000060658
| 14> **                         ****END OF INPUT****

CARTESIAN COORDINATES (ANGSTROEM)
---------------------------------
  C     -4.404378    2.628094    0.000000
  C     -0.120132    2.629146    0.000000
  H     -3.998383    3.663218   -0.000000
  H     -0.526127    1.594022   -0.000000

 Total Charge           Charge          ....    0
 Multiplicity           Mult            ....    1
 Number of Electrons    NEL             ....   14
 Basis Dimension        Dim             ....   32

ORBITAL ENERGIES
----------------

  NO   OCC          E(Eh)            E(eV)
   0   2.0000     -10.399651      -282.9889
   1   2.0000     -10.399622      -282.9881
   2   2.0000      -0.744783       -20.2666
   3   2.0000      -0.741295       -20.1717
   4   2.0000      -0.407242       -11.0816
   5   2.0000      -0.405829       -11.0432
   6   2.0000      -0.235717        -6.4142
   7   0.0000      -0.097888        -2.6637
   8   0.0000      -0.035009        -0.9527
   9   0.0000      -0.033277        -0.9055
  10   0.0000       0.221067         6.0155
  11   0.0000       0.223955         6.0941

MULLIKEN ATOMIC CHARGES
-----------------------
   0 C :   -0.157532
   1 C :   -0.157494
   2 H :    0.157516
   3 H :    0.157510
Sum of atomic charges:   -0.0000000

LOEWDIN ATOMIC CHARGES
----------------------
   0 C :   -0.109896
   1 C :   -0.109860
   2 H :    0.109880
   3 H :    0.109876

  Mayer bond orders larger than 0.1
B(  0-C ,  1-C ) :   0.9983 B(  0-C ,  2-H ) :   0.9049 B(  1-C ,  3-H ) :   0.9049

Dispersion correction           -0.000305538
FINAL SINGLE POINT ENERGY       -76.812140702098

DIPOLE MOMENT
-------------
                                X             Y             Z
Electronic contribution:      0.00013       0.00001       0.00000
Nuclear contribution   :      0.00000      -0.00000      -0.00000
                        -----------------------------------------
Total Dipole Moment    :      0.00013       0.00001      -0.00000
                        -----------------------------------------
Magnitude (a.u.)       :      0.00013
Magnitude (Debye)      :      0.00034

                             ****ORCA TERMINATED NORMALLY****
TOTAL RUN TIME: 0 days 0 hours 0 minutes 3 seconds 232 msec
