                         Program Version 4.0.0.2 - RELEASE -
|  1> ! WB97X-D3 6-31G(d) VerySlowConv
|  2> ! KDIIS NOSOSCF
|  3> %base "Scan_39"
|  4>
|  5> %scf
|  6> maxiter 999
|  7> end
|  8>
|  9> * xyz 0 1
| 10> C         -4.455414621764    2.640129125608   -0.000000049905
| 11> C         -0.069095948288    2.617111020007    0.000000150232
| 12> H         -4.031733499134    3.668227308227   -0.000000117104
| 13> H         -0.492775930814    1.589012546157    0.000000016777
| 14> **                         ****END OF INPUT****

CARTESIAN COORDINATES (ANGSTROEM)
---------------------------------
  C     -4.455415    2.640129   -0.000000
  C     -0.069096    2.617111    0.000000
  H     -4.031733    3.668227   -0.000000
  H     -0.492776    1.589013    0.000000

 Total Charge           Charge          ....    0
 Multiplicity           Mult            ....    1
 Number of Electrons    NEL             ....   14
 Basis Dimension        Dim             ....   32

ORBITAL ENERGIES
----------------

  NO   OCC          E(Eh)            E(eV)
   0   2.0000     -10.398832      -282.9666
   1   2.0000     -10.398722      -282.9636
   2   2.0000      -0.744389       -20.2559
   3   2.0000      -0.741282       -20.1713
   4   2.0000      -0.406822       -11.0702
   5   2.0000      -0.405698       -11.0396
   6   2.0000      -0.233121        -6.3436
   7   0.0000      -0.100071        -2.7231
   8   0.0000      -0.034613        -0.9419
   9   0.0000      -0.033207        -0.9036
  10   0.0000       0.221162         6.0181
  11   0.0000       0.223621         6.0850

MULLIKEN ATOMIC CHARGES
-----------------------
   0 C :   -0.156313
   1 C :   -0.156468
   2 H :    0.156379
   3 H :    0.156402
Sum of atomic charges:   -0.0000000

LOEWDIN ATOMIC CHARGES
----------------------
   0 C :   -0.109132
   1 C :   -0.109280
   2 H :    0.109199
   3 H :    0.109214

  Mayer bond orders larger than 0.1
B(  0-C ,  1-C ) :   0.9986 B(  0-C ,  2-H ) :   0.9050 B(  1-C ,  3-H ) :   0.9050

Dispersion correction           -0.000279268
FINAL SINGLE POINT ENERGY       -76.808717507850

DIPOLE MOMENT
-------------
                                X             Y             Z
Electronic contribution:     -0.00056      -0.00003       0.00000
Nuclear contribution   :      0.00000      -0.00000      -0.00000
                        -----------------------------------------
Total Dipole Moment    :     -0.00056      -0.00003      -0.00000
                        -----------------------------------------
Magnitude (a.u.)       :      0.00056
Magnitude (Debye)      :      0.00142

                             ****ORCA TERMINATED NORMALLY****
TOTAL RUN TIME: 0 days 0 hours 0 minutes 3 seconds 144 msec
