                         Program Version 4.0.0.2 - RELEASE -
|  1> ! WB97X-D3 6-31G(d) VerySlowConv
|  2> ! KDIIS NOSOSCF
|  3> %base "Scan_4"
|  4>
|  5> %scf
|  6> maxiter 999
|  7> end
|  8>
|  9> * xyz 0 1
| 10> C         -2.812771076475    2.625707201733    0.000000000000
| 11> C         -1.711738923525    2.631532798267   -0.000000000000
| 12> H         -3.866439631989    2.620134741174    0.000000000000
| 13> H         -0.658070368011    2.637105258826   -0.000000000000
| 14> **                         ****END OF INPUT****

CARTESIAN COORDINATES (ANGSTROEM)
---------------------------------
  C     -2.812771    2.625707    0.000000
  C     -1.711739    2.631533   -0.000000
  H     -3.866440    2.620135    0.000000
  H     -0.658070    2.637105   -0.000000

 Total Charge           Charge          ....    0
 Multiplicity           Mult            ....    1
 Number of Electrons    NEL             ....   14
 Basis Dimension        Dim             ....   32

ORBITAL ENERGIES
----------------

  NO   OCC          E(Eh)            E(eV)
   0   2.0000     -10.261640      -279.2334
   1   2.0000     -10.255976      -279.0793
   2   2.0000      -0.874695       -23.8017
   3   2.0000      -0.658557       -17.9203
   4   2.0000      -0.591414       -16.0932
   5   2.0000      -0.395223       -10.7546
   6   2.0000      -0.395223       -10.7546
   7   0.0000       0.174869         4.7584
   8   0.0000       0.174870         4.7585
   9   0.0000       0.222323         6.0497
  10   0.0000       0.255347         6.9483
  11   0.0000       0.560270        15.2457

MULLIKEN ATOMIC CHARGES
-----------------------
   0 C :   -0.214903
   1 C :   -0.214903
   2 H :    0.214903
   3 H :    0.214903
Sum of atomic charges:    0.0000000

LOEWDIN ATOMIC CHARGES
----------------------
   0 C :   -0.163528
   1 C :   -0.163528
   2 H :    0.163528
   3 H :    0.163528

  Mayer bond orders larger than 0.1
B(  0-C ,  1-C ) :   3.0933 B(  0-C ,  2-H ) :   0.9036 B(  1-C ,  3-H ) :   0.9036

Dispersion correction           -0.000080332
FINAL SINGLE POINT ENERGY       -77.268968103390

DIPOLE MOMENT
-------------
                                X             Y             Z
Electronic contribution:     -0.00000      -0.00000      -0.00000
Nuclear contribution   :      0.00000       0.00000       0.00000
                        -----------------------------------------
Total Dipole Moment    :     -0.00000      -0.00000      -0.00000
                        -----------------------------------------
Magnitude (a.u.)       :      0.00000
Magnitude (Debye)      :      0.00000

                             ****ORCA TERMINATED NORMALLY****
TOTAL RUN TIME: 0 days 0 hours 0 minutes 3 seconds 935 msec
