                         Program Version 4.0.0.2 - RELEASE -
|  1> ! WB97X-D3 6-31G(d) VerySlowConv
|  2> ! KDIIS NOSOSCF
|  3> %base "Scan_40"
|  4>
|  5> %scf
|  6> maxiter 999
|  7> end
|  8>
|  9> * xyz 0 1
| 10> C         -4.506472727665    2.652437147540   -0.000000565580
| 11> C         -0.018037845852    2.604803113663   -0.000000361106
| 12> H         -4.066135413368    3.673516259714    0.000000394901
| 13> H         -0.458374013115    1.583723479082    0.000000531785
| 14> **                         ****END OF INPUT****

CARTESIAN COORDINATES (ANGSTROEM)
---------------------------------
  C     -4.506473    2.652437   -0.000001
  C     -0.018038    2.604803   -0.000000
  H     -4.066135    3.673516    0.000000
  H     -0.458374    1.583723    0.000001

 Total Charge           Charge          ....    0
 Multiplicity           Mult            ....    1
 Number of Electrons    NEL             ....   14
 Basis Dimension        Dim             ....   32

ORBITAL ENERGIES
----------------

  NO   OCC          E(Eh)            E(eV)
   0   2.0000     -10.397981      -282.9435
   1   2.0000     -10.397931      -282.9421
   2   2.0000      -0.744030       -20.2461
   3   2.0000      -0.741257       -20.1706
   4   2.0000      -0.406430       -11.0595
   5   2.0000      -0.405553       -11.0357
   6   2.0000      -0.230702        -6.2777
   7   0.0000      -0.102064        -2.7773
   8   0.0000      -0.034244        -0.9318
   9   0.0000      -0.033109        -0.9009
  10   0.0000       0.221254         6.0206
  11   0.0000       0.223387         6.0787

MULLIKEN ATOMIC CHARGES
-----------------------
   0 C :   -0.155437
   1 C :   -0.155369
   2 H :    0.155408
   3 H :    0.155398
Sum of atomic charges:    0.0000000

LOEWDIN ATOMIC CHARGES
----------------------
   0 C :   -0.108645
   1 C :   -0.108580
   2 H :    0.108616
   3 H :    0.108609

  Mayer bond orders larger than 0.1
B(  0-C ,  1-C ) :   0.9989 B(  0-C ,  2-H ) :   0.9051 B(  1-C ,  3-H ) :   0.9051

Dispersion correction           -0.000253524
FINAL SINGLE POINT ENERGY       -76.805618403080

DIPOLE MOMENT
-------------
                                X             Y             Z
Electronic contribution:      0.00025       0.00001      -0.00000
Nuclear contribution   :      0.00000      -0.00000       0.00000
                        -----------------------------------------
Total Dipole Moment    :      0.00025       0.00001       0.00000
                        -----------------------------------------
Magnitude (a.u.)       :      0.00025
Magnitude (Debye)      :      0.00065

                             ****ORCA TERMINATED NORMALLY****
TOTAL RUN TIME: 0 days 0 hours 0 minutes 3 seconds 863 msec
