                         Program Version 4.0.0.2 - RELEASE -
|  1> ! WB97X-D3 6-31G(d) VerySlowConv
|  2> ! KDIIS NOSOSCF
|  3> %base "Scan_41"
|  4>
|  5> %scf
|  6> maxiter 999
|  7> end
|  8>
|  9> * xyz 0 1
| 10> C         -4.557020034943    2.666310474133    0.000001285573
| 11> C          0.032510107810    2.590929421588    0.000001494296
| 12> H         -4.130783547863    3.694370918491   -0.000001461052
| 13> H         -0.393726525004    1.562869185788   -0.000001318818
| 14> **                         ****END OF INPUT****

CARTESIAN COORDINATES (ANGSTROEM)
---------------------------------
  C     -4.557020    2.666310    0.000001
  C      0.032510    2.590929    0.000001
  H     -4.130784    3.694371   -0.000001
  H     -0.393727    1.562869   -0.000001

 Total Charge           Charge          ....    0
 Multiplicity           Mult            ....    1
 Number of Electrons    NEL             ....   14
 Basis Dimension        Dim             ....   32

ORBITAL ENERGIES
----------------

  NO   OCC          E(Eh)            E(eV)
   0   2.0000     -10.397287      -282.9246
   1   2.0000     -10.397165      -282.9213
   2   2.0000      -0.743281       -20.2257
   3   2.0000      -0.740798       -20.1581
   4   2.0000      -0.405899       -11.0451
   5   2.0000      -0.405257       -11.0276
   6   2.0000      -0.228412        -6.2154
   7   0.0000      -0.103527        -2.8171
   8   0.0000      -0.033731        -0.9179
   9   0.0000      -0.032813        -0.8929
  10   0.0000       0.221342         6.0230
  11   0.0000       0.223099         6.0708

MULLIKEN ATOMIC CHARGES
-----------------------
   0 C :   -0.154253
   1 C :   -0.154422
   2 H :    0.154325
   3 H :    0.154349
Sum of atomic charges:   -0.0000000

LOEWDIN ATOMIC CHARGES
----------------------
   0 C :   -0.108035
   1 C :   -0.108197
   2 H :    0.108108
   3 H :    0.108124

  Mayer bond orders larger than 0.1
B(  0-C ,  1-C ) :   0.9993 B(  0-C ,  2-H ) :   0.9054 B(  1-C ,  3-H ) :   0.9054

Dispersion correction           -0.000223439
FINAL SINGLE POINT ENERGY       -76.803090393748

DIPOLE MOMENT
-------------
                                X             Y             Z
Electronic contribution:     -0.00064      -0.00002       0.00000
Nuclear contribution   :     -0.00000       0.00000      -0.00000
                        -----------------------------------------
Total Dipole Moment    :     -0.00064      -0.00002      -0.00000
                        -----------------------------------------
Magnitude (a.u.)       :      0.00064
Magnitude (Debye)      :      0.00163

                             ****ORCA TERMINATED NORMALLY****
TOTAL RUN TIME: 0 days 0 hours 0 minutes 3 seconds 315 msec
