                         Program Version 4.0.0.2 - RELEASE -
|  1> ! WB97X-D3 6-31G(d) VerySlowConv
|  2> ! KDIIS NOSOSCF
|  3> %base "Scan_42"
|  4>
|  5> %scf
|  6> maxiter 999
|  7> end
|  8>
|  9> * xyz 0 1
| 10> C         -4.608420272790    2.678798887180    0.000000946037
| 11> C          0.083910393814    2.578441063075    0.000001159124
| 12> H         -4.155948421724    3.694423794828   -0.000001124847
| 13> H         -0.368561699301    1.562816254917   -0.000000980314
| 14> **                         ****END OF INPUT****

CARTESIAN COORDINATES (ANGSTROEM)
---------------------------------
  C     -4.608420    2.678799    0.000001
  C      0.083910    2.578441    0.000001
  H     -4.155948    3.694424   -0.000001
  H     -0.368562    1.562816   -0.000001

 Total Charge           Charge          ....    0
 Multiplicity           Mult            ....    1
 Number of Electrons    NEL             ....   14
 Basis Dimension        Dim             ....   32

ORBITAL ENERGIES
----------------

  NO   OCC          E(Eh)            E(eV)
   0   2.0000     -10.396494      -282.9030
   1   2.0000     -10.396457      -282.9020
   2   2.0000      -0.743310       -20.2265
   3   2.0000      -0.741077       -20.1657
   4   2.0000      -0.405656       -11.0385
   5   2.0000      -0.405171       -11.0253
   6   2.0000      -0.226352        -6.1594
   7   0.0000      -0.105364        -2.8671
   8   0.0000      -0.033501        -0.9116
   9   0.0000      -0.032768        -0.8917
  10   0.0000       0.221631         6.0309
  11   0.0000       0.223213         6.0739

MULLIKEN ATOMIC CHARGES
-----------------------
   0 C :   -0.153841
   1 C :   -0.153792
   2 H :    0.153820
   3 H :    0.153813
Sum of atomic charges:   -0.0000000

LOEWDIN ATOMIC CHARGES
----------------------
   0 C :   -0.107681
   1 C :   -0.107634
   2 H :    0.107660
   3 H :    0.107655

  Mayer bond orders larger than 0.1
B(  0-C ,  1-C ) :   0.9994 B(  0-C ,  2-H ) :   0.9052 B(  1-C ,  3-H ) :   0.9052

Dispersion correction           -0.000202346
FINAL SINGLE POINT ENERGY       -76.800413296835

DIPOLE MOMENT
-------------
                                X             Y             Z
Electronic contribution:      0.00019       0.00000       0.00000
Nuclear contribution   :     -0.00000       0.00000      -0.00000
                        -----------------------------------------
Total Dipole Moment    :      0.00019       0.00000      -0.00000
                        -----------------------------------------
Magnitude (a.u.)       :      0.00019
Magnitude (Debye)      :      0.00048

                             ****ORCA TERMINATED NORMALLY****
TOTAL RUN TIME: 0 days 0 hours 0 minutes 3 seconds 313 msec
