                         Program Version 4.0.0.2 - RELEASE -
|  1> ! WB97X-D3 6-31G(d) VerySlowConv
|  2> ! KDIIS NOSOSCF
|  3> %base "Scan_43"
|  4>
|  5> %scf
|  6> maxiter 999
|  7> end
|  8>
|  9> * xyz 0 1
| 10> C         -4.659221001129    2.691297591838   -0.000000129588
| 11> C          0.134710184797    2.565942600494    0.000000087806
| 12> H         -4.190112847607    3.699513426851   -0.000000052869
| 13> H         -0.334396336062    1.557726380818    0.000000094650
| 14> **                         ****END OF INPUT****

CARTESIAN COORDINATES (ANGSTROEM)
---------------------------------
  C     -4.659221    2.691298   -0.000000
  C      0.134710    2.565943    0.000000
  H     -4.190113    3.699513   -0.000000
  H     -0.334396    1.557726    0.000000

 Total Charge           Charge          ....    0
 Multiplicity           Mult            ....    1
 Number of Electrons    NEL             ....   14
 Basis Dimension        Dim             ....   32

ORBITAL ENERGIES
----------------

  NO   OCC          E(Eh)            E(eV)
   0   2.0000     -10.395963      -282.8885
   1   2.0000     -10.395926      -282.8875
   2   2.0000      -0.743037       -20.2191
   3   2.0000      -0.741019       -20.1641
   4   2.0000      -0.405413       -11.0319
   5   2.0000      -0.405061       -11.0223
   6   2.0000      -0.224464        -6.1080
   7   0.0000      -0.106961        -2.9106
   8   0.0000      -0.033279        -0.9056
   9   0.0000      -0.032692        -0.8896
  10   0.0000       0.221596         6.0299
  11   0.0000       0.223031         6.0690

MULLIKEN ATOMIC CHARGES
-----------------------
   0 C :   -0.152982
   1 C :   -0.153032
   2 H :    0.153004
   3 H :    0.153011
Sum of atomic charges:    0.0000000

LOEWDIN ATOMIC CHARGES
----------------------
   0 C :   -0.107176
   1 C :   -0.107224
   2 H :    0.107198
   3 H :    0.107203

  Mayer bond orders larger than 0.1
B(  0-C ,  1-C ) :   0.9995 B(  0-C ,  2-H ) :   0.9053 B(  1-C ,  3-H ) :   0.9053

Dispersion correction           -0.000181483
FINAL SINGLE POINT ENERGY       -76.798112293330

DIPOLE MOMENT
-------------
                                X             Y             Z
Electronic contribution:     -0.00020      -0.00000      -0.00000
Nuclear contribution   :      0.00000      -0.00000       0.00000
                        -----------------------------------------
Total Dipole Moment    :     -0.00020      -0.00000       0.00000
                        -----------------------------------------
Magnitude (a.u.)       :      0.00020
Magnitude (Debye)      :      0.00050

                             ****ORCA TERMINATED NORMALLY****
TOTAL RUN TIME: 0 days 0 hours 0 minutes 10 seconds 976 msec
