                         Program Version 4.0.0.2 - RELEASE -
|  1> ! WB97X-D3 6-31G(d) VerySlowConv
|  2> ! KDIIS NOSOSCF
|  3> %base "Scan_44"
|  4>
|  5> %scf
|  6> maxiter 999
|  7> end
|  8>
|  9> * xyz 0 1
| 10> C         -4.709590283602    2.704634695070    0.000000651583
| 11> C          0.185080763470    2.552605012841    0.000000873223
| 12> H         -4.254163517746    3.720147269381   -0.000000838809
| 13> H         -0.270346962117    1.537093022702   -0.000000685992
| 14> **                         ****END OF INPUT****

CARTESIAN COORDINATES (ANGSTROEM)
---------------------------------
  C     -4.709590    2.704635    0.000001
  C      0.185081    2.552605    0.000001
  H     -4.254164    3.720147   -0.000001
  H     -0.270347    1.537093   -0.000001

 Total Charge           Charge          ....    0
 Multiplicity           Mult            ....    1
 Number of Electrons    NEL             ....   14
 Basis Dimension        Dim             ....   32

ORBITAL ENERGIES
----------------

  NO   OCC          E(Eh)            E(eV)
   0   2.0000     -10.395505      -282.8761
   1   2.0000     -10.395420      -282.8738
   2   2.0000      -0.742422       -20.2023
   3   2.0000      -0.740578       -20.1521
   4   2.0000      -0.405043       -11.0218
   5   2.0000      -0.404811       -11.0155
   6   2.0000      -0.222647        -6.0585
   7   0.0000      -0.108151        -2.9429
   8   0.0000      -0.032912        -0.8956
   9   0.0000      -0.032440        -0.8827
  10   0.0000       0.221582         6.0296
  11   0.0000       0.222713         6.0603

MULLIKEN ATOMIC CHARGES
-----------------------
   0 C :   -0.152076
   1 C :   -0.152194
   2 H :    0.152126
   3 H :    0.152143
Sum of atomic charges:   -0.0000000

LOEWDIN ATOMIC CHARGES
----------------------
   0 C :   -0.106775
   1 C :   -0.106887
   2 H :    0.106825
   3 H :    0.106837

  Mayer bond orders larger than 0.1
B(  0-C ,  1-C ) :   0.9997 B(  0-C ,  2-H ) :   0.9057 B(  1-C ,  3-H ) :   0.9057

Dispersion correction           -0.000158709
FINAL SINGLE POINT ENERGY       -76.796220594529

DIPOLE MOMENT
-------------
                                X             Y             Z
Electronic contribution:     -0.00048      -0.00001       0.00000
Nuclear contribution   :     -0.00000       0.00000      -0.00000
                        -----------------------------------------
Total Dipole Moment    :     -0.00048      -0.00001      -0.00000
                        -----------------------------------------
Magnitude (a.u.)       :      0.00048
Magnitude (Debye)      :      0.00121

                             ****ORCA TERMINATED NORMALLY****
TOTAL RUN TIME: 0 days 0 hours 0 minutes 10 seconds 876 msec
