                         Program Version 4.0.0.2 - RELEASE -
|  1> ! WB97X-D3 6-31G(d) VerySlowConv
|  2> ! KDIIS NOSOSCF
|  3> %base "Scan_45"
|  4>
|  5> %scf
|  6> maxiter 999
|  7> end
|  8>
|  9> * xyz 0 1
| 10> C         -4.760801526511    2.717665078203    0.000000414340
| 11> C          0.236292181827    2.539574610742    0.000000640312
| 12> H         -4.279421533365    3.719932807042   -0.000000604889
| 13> H         -0.245089121946    1.537307504005   -0.000000449758
| 14> **                         ****END OF INPUT****

CARTESIAN COORDINATES (ANGSTROEM)
---------------------------------
  C     -4.760802    2.717665    0.000000
  C      0.236292    2.539575    0.000001
  H     -4.279422    3.719933   -0.000001
  H     -0.245089    1.537308   -0.000000

 Total Charge           Charge          ....    0
 Multiplicity           Mult            ....    1
 Number of Electrons    NEL             ....   14
 Basis Dimension        Dim             ....   32

ORBITAL ENERGIES
----------------

  NO   OCC          E(Eh)            E(eV)
   0   2.0000     -10.394999      -282.8623
   1   2.0000     -10.394871      -282.8588
   2   2.0000      -0.742553       -20.2059
   3   2.0000      -0.740881       -20.1604
   4   2.0000      -0.404919       -11.0184
   5   2.0000      -0.404756       -11.0140
   6   2.0000      -0.221025        -6.0144
   7   0.0000      -0.109642        -2.9835
   8   0.0000      -0.032796        -0.8924
   9   0.0000      -0.032416        -0.8821
  10   0.0000       0.221783         6.0350
  11   0.0000       0.222885         6.0650

MULLIKEN ATOMIC CHARGES
-----------------------
   0 C :   -0.151896
   1 C :   -0.151719
   2 H :    0.151820
   3 H :    0.151795
Sum of atomic charges:   -0.0000000

LOEWDIN ATOMIC CHARGES
----------------------
   0 C :   -0.106595
   1 C :   -0.106426
   2 H :    0.106519
   3 H :    0.106502

  Mayer bond orders larger than 0.1
B(  0-C ,  1-C ) :   0.9998 B(  0-C ,  2-H ) :   0.9055 B(  1-C ,  3-H ) :   0.9055

Dispersion correction           -0.000142776
FINAL SINGLE POINT ENERGY       -76.794201792913

DIPOLE MOMENT
-------------
                                X             Y             Z
Electronic contribution:      0.00073       0.00001       0.00000
Nuclear contribution   :     -0.00000       0.00000      -0.00000
                        -----------------------------------------
Total Dipole Moment    :      0.00073       0.00001      -0.00000
                        -----------------------------------------
Magnitude (a.u.)       :      0.00073
Magnitude (Debye)      :      0.00186

                             ****ORCA TERMINATED NORMALLY****
TOTAL RUN TIME: 0 days 0 hours 0 minutes 3 seconds 255 msec
