                         Program Version 4.0.0.2 - RELEASE -
|  1> ! WB97X-D3 6-31G(d) VerySlowConv
|  2> ! KDIIS NOSOSCF
|  3> %base "Scan_6"
|  4>
|  5> %scf
|  6> maxiter 999
|  7> end
|  8>
|  9> * xyz 0 1
| 10> C         -2.834928124607    2.625590033370    0.000000000000
| 11> C         -1.689581875392    2.631649966630   -0.000000000000
| 12> H         -3.886541855255    2.620027753773    0.000000000000
| 13> H         -0.637968144747    2.637212246227   -0.000000000000
| 14> **                         ****END OF INPUT****

CARTESIAN COORDINATES (ANGSTROEM)
---------------------------------
  C     -2.834928    2.625590    0.000000
  C     -1.689582    2.631650   -0.000000
  H     -3.886542    2.620028    0.000000
  H     -0.637968    2.637212   -0.000000

 Total Charge           Charge          ....    0
 Multiplicity           Mult            ....    1
 Number of Electrons    NEL             ....   14
 Basis Dimension        Dim             ....   32

ORBITAL ENERGIES
----------------

  NO   OCC          E(Eh)            E(eV)
   0   2.0000     -10.272473      -279.5282
   1   2.0000     -10.268596      -279.4227
   2   2.0000      -0.867912       -23.6171
   3   2.0000      -0.665355       -18.1052
   4   2.0000      -0.592413       -16.1204
   5   2.0000      -0.386976       -10.5301
   6   2.0000      -0.386975       -10.5301
   7   0.0000       0.159966         4.3529
   8   0.0000       0.159967         4.3529
   9   0.0000       0.217019         5.9054
  10   0.0000       0.255334         6.9480
  11   0.0000       0.551646        15.0110

MULLIKEN ATOMIC CHARGES
-----------------------
   0 C :   -0.220661
   1 C :   -0.220661
   2 H :    0.220661
   3 H :    0.220661
Sum of atomic charges:    0.0000000

LOEWDIN ATOMIC CHARGES
----------------------
   0 C :   -0.166432
   1 C :   -0.166432
   2 H :    0.166432
   3 H :    0.166432

  Mayer bond orders larger than 0.1
B(  0-C ,  1-C ) :   3.0682 B(  0-C ,  2-H ) :   0.9053 B(  1-C ,  3-H ) :   0.9053

Dispersion correction           -0.000083337
FINAL SINGLE POINT ENERGY       -77.287408299870

DIPOLE MOMENT
-------------
                                X             Y             Z
Electronic contribution:      0.00000      -0.00000      -0.00000
Nuclear contribution   :     -0.00000      -0.00000       0.00000
                        -----------------------------------------
Total Dipole Moment    :      0.00000      -0.00000      -0.00000
                        -----------------------------------------
Magnitude (a.u.)       :      0.00000
Magnitude (Debye)      :      0.00000

                             ****ORCA TERMINATED NORMALLY****
TOTAL RUN TIME: 0 days 0 hours 0 minutes 3 seconds 641 msec
