                         Program Version 4.0.0.2 - RELEASE -
|  1> ! WB97X-D3 6-31G(d) VerySlowConv
|  2> ! KDIIS NOSOSCF
|  3> %base "Scan_7"
|  4>
|  5> %scf
|  6> maxiter 999
|  7> end
|  8>
|  9> * xyz 0 1
| 10> C         -2.847797932848    2.625522000717   -0.000000000010
| 11> C         -1.676712067147    2.631717999283    0.000000000010
| 12> H         -3.898293011672    2.619965417516   -0.000000000000
| 13> H         -0.626216988333    2.637274582484    0.000000000000
| 14> **                         ****END OF INPUT****

CARTESIAN COORDINATES (ANGSTROEM)
---------------------------------
  C     -2.847798    2.625522   -0.000000
  C     -1.676712    2.631718    0.000000
  H     -3.898293    2.619965   -0.000000
  H     -0.626217    2.637275    0.000000

 Total Charge           Charge          ....    0
 Multiplicity           Mult            ....    1
 Number of Electrons    NEL             ....   14
 Basis Dimension        Dim             ....   32

ORBITAL ENERGIES
----------------

  NO   OCC          E(Eh)            E(eV)
   0   2.0000     -10.278903      -279.7032
   1   2.0000     -10.275786      -279.6184
   2   2.0000      -0.863706       -23.5026
   3   2.0000      -0.669136       -18.2081
   4   2.0000      -0.592677       -16.1275
   5   2.0000      -0.382486       -10.4080
   6   2.0000      -0.382485       -10.4080
   7   0.0000       0.151561         4.1242
   8   0.0000       0.151562         4.1242
   9   0.0000       0.213735         5.8160
  10   0.0000       0.255311         6.9474
  11   0.0000       0.540900        14.7186

MULLIKEN ATOMIC CHARGES
-----------------------
   0 C :   -0.223819
   1 C :   -0.223819
   2 H :    0.223819
   3 H :    0.223819
Sum of atomic charges:    0.0000000

LOEWDIN ATOMIC CHARGES
----------------------
   0 C :   -0.168081
   1 C :   -0.168081
   2 H :    0.168081
   3 H :    0.168081

  Mayer bond orders larger than 0.1
B(  0-C ,  1-C ) :   3.0557 B(  0-C ,  2-H ) :   0.9059 B(  1-C ,  3-H ) :   0.9059

Dispersion correction           -0.000085323
FINAL SINGLE POINT ENERGY       -77.292748786506

DIPOLE MOMENT
-------------
                                X             Y             Z
Electronic contribution:      0.00000       0.00000      -0.00000
Nuclear contribution   :     -0.00000      -0.00000       0.00000
                        -----------------------------------------
Total Dipole Moment    :      0.00000       0.00000      -0.00000
                        -----------------------------------------
Magnitude (a.u.)       :      0.00000
Magnitude (Debye)      :      0.00000

                             ****ORCA TERMINATED NORMALLY****
TOTAL RUN TIME: 0 days 0 hours 0 minutes 14 seconds 165 msec
