                         Program Version 4.0.0.2 - RELEASE -
|  1> ! WB97X-D3 6-31G(d) VerySlowConv
|  2> ! KDIIS NOSOSCF
|  3> %base "Scan_8"
|  4>
|  5> %scf
|  6> maxiter 999
|  7> end
|  8>
|  9> * xyz 0 1
| 10> C         -2.862432654705    2.625444652527   -0.000000000009
| 11> C         -1.662077345292    2.631795347473    0.000000000009
| 12> H         -3.911912211668    2.619893341760   -0.000000000004
| 13> H         -0.612597788335    2.637346658241    0.000000000004
| 14> **                         ****END OF INPUT****

CARTESIAN COORDINATES (ANGSTROEM)
---------------------------------
  C     -2.862433    2.625445   -0.000000
  C     -1.662077    2.631795    0.000000
  H     -3.911912    2.619893   -0.000000
  H     -0.612598    2.637347    0.000000

 Total Charge           Charge          ....    0
 Multiplicity           Mult            ....    1
 Number of Electrons    NEL             ....   14
 Basis Dimension        Dim             ....   32

ORBITAL ENERGIES
----------------

  NO   OCC          E(Eh)            E(eV)
   0   2.0000     -10.286238      -279.9028
   1   2.0000     -10.283800      -279.8364
   2   2.0000      -0.858794       -23.3690
   3   2.0000      -0.673231       -18.3196
   4   2.0000      -0.592656       -16.1270
   5   2.0000      -0.377619       -10.2755
   6   2.0000      -0.377619       -10.2755
   7   0.0000       0.142246         3.8707
   8   0.0000       0.142246         3.8707
   9   0.0000       0.209718         5.7067
  10   0.0000       0.255207         6.9445
  11   0.0000       0.528351        14.3772

MULLIKEN ATOMIC CHARGES
-----------------------
   0 C :   -0.227321
   1 C :   -0.227321
   2 H :    0.227321
   3 H :    0.227321
Sum of atomic charges:    0.0000000

LOEWDIN ATOMIC CHARGES
----------------------
   0 C :   -0.169940
   1 C :   -0.169940
   2 H :    0.169940
   3 H :    0.169940

  Mayer bond orders larger than 0.1
B(  0-C ,  1-C ) :   3.0433 B(  0-C ,  2-H ) :   0.9060 B(  1-C ,  3-H ) :   0.9060

Dispersion correction           -0.000087829
FINAL SINGLE POINT ENERGY       -77.294832121400

DIPOLE MOMENT
-------------
                                X             Y             Z
Electronic contribution:      0.00000       0.00000      -0.00000
Nuclear contribution   :     -0.00000       0.00000       0.00000
                        -----------------------------------------
Total Dipole Moment    :      0.00000       0.00000      -0.00000
                        -----------------------------------------
Magnitude (a.u.)       :      0.00000
Magnitude (Debye)      :      0.00000

                             ****ORCA TERMINATED NORMALLY****
TOTAL RUN TIME: 0 days 0 hours 0 minutes 14 seconds 106 msec
