                         Program Version 4.0.0.2 - RELEASE -
|  1> ! WB97X-D3 6-31G(d) VerySlowConv
|  2> ! KDIIS NOSOSCF
|  3> %base "Scan_9"
|  4>
|  5> %scf
|  6> maxiter 999
|  7> end
|  8>
|  9> * xyz 0 1
| 10> C         -2.879138673831    2.625356303334   -0.000000000008
| 11> C         -1.645371326168    2.631883696666    0.000000000008
| 12> H         -3.926929814464    2.619813882903   -0.000000000005
| 13> H         -0.597580185536    2.637426117098    0.000000000005
| 14> **                         ****END OF INPUT****

CARTESIAN COORDINATES (ANGSTROEM)
---------------------------------
  C     -2.879139    2.625356   -0.000000
  C     -1.645371    2.631884    0.000000
  H     -3.926930    2.619814   -0.000000
  H     -0.597580    2.637426    0.000000

 Total Charge           Charge          ....    0
 Multiplicity           Mult            ....    1
 Number of Electrons    NEL             ....   14
 Basis Dimension        Dim             ....   32

ORBITAL ENERGIES
----------------

  NO   OCC          E(Eh)            E(eV)
   0   2.0000     -10.294517      -280.1281
   1   2.0000     -10.292671      -280.0778
   2   2.0000      -0.853141       -23.2152
   3   2.0000      -0.677906       -18.4468
   4   2.0000      -0.592426       -16.1207
   5   2.0000      -0.372359       -10.1324
   6   2.0000      -0.372359       -10.1324
   7   0.0000       0.131909         3.5894
   8   0.0000       0.131909         3.5894
   9   0.0000       0.205044         5.5795
  10   0.0000       0.255252         6.9458
  11   0.0000       0.513625        13.9764

MULLIKEN ATOMIC CHARGES
-----------------------
   0 C :   -0.230975
   1 C :   -0.230975
   2 H :    0.230975
   3 H :    0.230975
Sum of atomic charges:    0.0000000

LOEWDIN ATOMIC CHARGES
----------------------
   0 C :   -0.171938
   1 C :   -0.171938
   2 H :    0.171938
   3 H :    0.171938

  Mayer bond orders larger than 0.1
B(  0-C ,  1-C ) :   3.0304 B(  0-C ,  2-H ) :   0.9059 B(  1-C ,  3-H ) :   0.9059

Dispersion correction           -0.000090997
FINAL SINGLE POINT ENERGY       -77.292767084406

DIPOLE MOMENT
-------------
                                X             Y             Z
Electronic contribution:      0.00000       0.00000       0.00000
Nuclear contribution   :     -0.00000       0.00000       0.00000
                        -----------------------------------------
Total Dipole Moment    :      0.00000       0.00000       0.00000
                        -----------------------------------------
Magnitude (a.u.)       :      0.00000
Magnitude (Debye)      :      0.00000

                             ****ORCA TERMINATED NORMALLY****
TOTAL RUN TIME: 0 days 0 hours 0 minutes 11 seconds 90 msec
