                         Program Version 4.0.0.2 - RELEASE -
|  1> ! WB97X-D3 6-31G(d) VerySlowConv
|  2> ! KDIIS NOSOSCF
|  3> %base "Scan_1"
|  4>
|  5> %scf
|  6> maxiter 999
|  7> end
|  8>
|  9> * xyz 0 1
| 10> N          0.050426859565    1.295954395043   -0.036224545416
| 11> H          0.829284218462    1.023887878007    0.005258628754
| 12> H         -0.338929414526    1.324361318778   -0.764206241398
| 13> H         -0.338931663501    1.540016408172    0.650212158059
| 14> **                         ****END OF INPUT****

CARTESIAN COORDINATES (ANGSTROEM)
---------------------------------
  N      0.050427    1.295954   -0.036225
  H      0.829284    1.023888    0.005259
  H     -0.338929    1.324361   -0.764206
  H     -0.338932    1.540016    0.650212

 Total Charge           Charge          ....    0
 Multiplicity           Mult            ....    1
 Number of Electrons    NEL             ....   10
 Basis Dimension        Dim             ....   20

ORBITAL ENERGIES
----------------

  NO   OCC          E(Eh)            E(eV)
   0   2.0000     -14.329627      -389.9290
   1   2.0000      -1.015246       -27.6263
   2   2.0000      -0.634709       -17.2713
   3   2.0000      -0.634595       -17.2682
   4   2.0000      -0.327286        -8.9059
   5   0.0000       0.239545         6.5184
   6   0.0000       0.324811         8.8386
   7   0.0000       0.324900         8.8410
   8   0.0000       0.793434        21.5904
   9   0.0000       0.794843        21.6288

MULLIKEN ATOMIC CHARGES
-----------------------
   0 N :   -0.955724
   1 H :    0.318868
   2 H :    0.318633
   3 H :    0.318223
Sum of atomic charges:    0.0000000

LOEWDIN ATOMIC CHARGES
----------------------
   0 N :   -0.666554
   1 H :    0.222307
   2 H :    0.222186
   3 H :    0.222061

  Mayer bond orders larger than 0.1
B(  0-N ,  1-H ) :   0.8908 B(  0-N ,  2-H ) :   0.8912 B(  0-N ,  3-H ) :   0.8913

Dispersion correction           -0.000002165
FINAL SINGLE POINT ENERGY       -56.396105521943

DIPOLE MOMENT
-------------
                                X             Y             Z
Electronic contribution:      0.00009      -0.00002       0.00019
Nuclear contribution   :      0.00011       0.00031      -0.00005
                        -----------------------------------------
Total Dipole Moment    :      0.00020       0.00029       0.00014
                        -----------------------------------------
Magnitude (a.u.)       :      0.00038
Magnitude (Debye)      :      0.00097

                             ****ORCA TERMINATED NORMALLY****
TOTAL RUN TIME: 0 days 0 hours 0 minutes 4 seconds 9 msec
