                         Program Version 4.0.0.2 - RELEASE -
|  1> ! WB97X-D3 6-31G(d) VerySlowConv
|  2> ! KDIIS NOSOSCF
|  3> %base "Scan_10"
|  4>
|  5> %scf
|  6> maxiter 999
|  7> end
|  8>
|  9> * xyz 0 1
| 10> N         -0.111956624456    0.841905668581    0.033003478623
| 11> H          1.199940470485    1.064608040574   -0.000949416431
| 12> H         -0.443065139132    1.487201815482   -1.083143091465
| 13> H         -0.443068706897    1.790504475363    0.906129029274
| 14> **                         ****END OF INPUT****

CARTESIAN COORDINATES (ANGSTROEM)
---------------------------------
  N     -0.111957    0.841906    0.033003
  H      1.199940    1.064608   -0.000949
  H     -0.443065    1.487202   -1.083143
  H     -0.443069    1.790504    0.906129

 Total Charge           Charge          ....    0
 Multiplicity           Mult            ....    1
 Number of Electrons    NEL             ....   10
 Basis Dimension        Dim             ....   20

ORBITAL ENERGIES
----------------

  NO   OCC          E(Eh)            E(eV)
   0   2.0000     -14.499277      -394.5454
   1   2.0000      -0.880193       -23.9513
   2   2.0000      -0.473573       -12.8866
   3   2.0000      -0.473497       -12.8845
   4   2.0000      -0.380539       -10.3550
   5   0.0000       0.081943         2.2298
   6   0.0000       0.142766         3.8848
   7   0.0000       0.142933         3.8894
   8   0.0000       0.774338        21.0708
   9   0.0000       0.836385        22.7592

MULLIKEN ATOMIC CHARGES
-----------------------
   0 N :   -0.661630
   1 H :    0.219968
   2 H :    0.221321
   3 H :    0.220340
Sum of atomic charges:    0.0000000

LOEWDIN ATOMIC CHARGES
----------------------
   0 N :   -0.567257
   1 H :    0.188812
   2 H :    0.189514
   3 H :    0.188930

  Mayer bond orders larger than 0.1
B(  0-N ,  1-H ) :   0.9237 B(  0-N ,  2-H ) :   0.9230 B(  0-N ,  3-H ) :   0.9235

Dispersion correction           -0.000041846
FINAL SINGLE POINT ENERGY       -56.405765115623

DIPOLE MOMENT
-------------
                                X             Y             Z
Electronic contribution:     -0.24223      -0.67583       0.10167
Nuclear contribution   :      0.50108       1.40109      -0.21362
                        -----------------------------------------
Total Dipole Moment    :      0.25885       0.72526      -0.11195
                        -----------------------------------------
Magnitude (a.u.)       :      0.77816
Magnitude (Debye)      :      1.97793

                             ****ORCA TERMINATED NORMALLY****
TOTAL RUN TIME: 0 days 0 hours 0 minutes 4 seconds 334 msec
