                         Program Version 4.0.0.2 - RELEASE -
|  1> ! WB97X-D3 6-31G(d) VerySlowConv
|  2> ! KDIIS NOSOSCF
|  3> %base "Scan_11"
|  4>
|  5> %scf
|  6> maxiter 999
|  7> end
|  8>
|  9> * xyz 0 1
| 10> N         -0.130695559165    0.789508670776    0.040992371272
| 11> H          1.275754283929    1.057759271238    0.000094946677
| 12> H         -0.471602466097    1.507192967515   -1.150831389037
| 13> H         -0.471606258666    1.829759090472    0.964784071087
| 14> **                         ****END OF INPUT****

CARTESIAN COORDINATES (ANGSTROEM)
---------------------------------
  N     -0.130696    0.789509    0.040992
  H      1.275754    1.057759    0.000095
  H     -0.471602    1.507193   -1.150831
  H     -0.471606    1.829759    0.964784

 Total Charge           Charge          ....    0
 Multiplicity           Mult            ....    1
 Number of Electrons    NEL             ....   10
 Basis Dimension        Dim             ....   20

ORBITAL ENERGIES
----------------

  NO   OCC          E(Eh)            E(eV)
   0   2.0000     -14.523843      -395.2139
   1   2.0000      -0.865488       -23.5511
   2   2.0000      -0.456177       -12.4132
   3   2.0000      -0.456168       -12.4130
   4   2.0000      -0.388421       -10.5695
   5   0.0000       0.053516         1.4563
   6   0.0000       0.104757         2.8506
   7   0.0000       0.104943         2.8556
   8   0.0000       0.750012        20.4089
   9   0.0000       0.843427        22.9508

MULLIKEN ATOMIC CHARGES
-----------------------
   0 N :   -0.555624
   1 H :    0.184653
   2 H :    0.185781
   3 H :    0.185191
Sum of atomic charges:   -0.0000000

LOEWDIN ATOMIC CHARGES
----------------------
   0 N :   -0.507355
   1 H :    0.168807
   2 H :    0.169418
   3 H :    0.169129

  Mayer bond orders larger than 0.1
B(  0-N ,  1-H ) :   0.9448 B(  0-N ,  2-H ) :   0.9444 B(  0-N ,  3-H ) :   0.9446

Dispersion correction           -0.000104192
FINAL SINGLE POINT ENERGY       -56.347488501245

DIPOLE MOMENT
-------------
                                X             Y             Z
Electronic contribution:     -0.31563      -0.87949       0.13295
Nuclear contribution   :      0.55889       1.56273      -0.23827
                        -----------------------------------------
Total Dipole Moment    :      0.24326       0.68324      -0.10532
                        -----------------------------------------
Magnitude (a.u.)       :      0.73286
Magnitude (Debye)      :      1.86278

                             ****ORCA TERMINATED NORMALLY****
TOTAL RUN TIME: 0 days 0 hours 0 minutes 3 seconds 996 msec
