                         Program Version 4.0.0.2 - RELEASE -
|  1> ! WB97X-D3 6-31G(d) VerySlowConv
|  2> ! KDIIS NOSOSCF
|  3> %base "Scan_12"
|  4>
|  5> %scf
|  6> maxiter 999
|  7> end
|  8>
|  9> * xyz 0 1
| 10> N         -0.148839087084    0.738776520321    0.048727425385
| 11> H          1.355309258126    1.048978618444    0.001433871614
| 12> H         -0.502308072141    1.526772189587   -1.222117479875
| 13> H         -0.502312098901    1.869692671648    1.026996182876
| 14> **                         ****END OF INPUT****

CARTESIAN COORDINATES (ANGSTROEM)
---------------------------------
  N     -0.148839    0.738777    0.048727
  H      1.355309    1.048979    0.001434
  H     -0.502308    1.526772   -1.222117
  H     -0.502312    1.869693    1.026996

 Total Charge           Charge          ....    0
 Multiplicity           Mult            ....    1
 Number of Electrons    NEL             ....   10
 Basis Dimension        Dim             ....   20

ORBITAL ENERGIES
----------------

  NO   OCC          E(Eh)            E(eV)
   0   2.0000     -14.544174      -395.7671
   1   2.0000      -0.854468       -23.2512
   2   2.0000      -0.440785       -11.9944
   3   2.0000      -0.440714       -11.9924
   4   2.0000      -0.393045       -10.6953
   5   0.0000       0.027121         0.7380
   6   0.0000       0.069708         1.8968
   7   0.0000       0.069863         1.9011
   8   0.0000       0.737117        20.0580
   9   0.0000       0.840301        22.8657

MULLIKEN ATOMIC CHARGES
-----------------------
   0 N :   -0.457608
   1 H :    0.152317
   2 H :    0.152899
   3 H :    0.152392
Sum of atomic charges:   -0.0000000

LOEWDIN ATOMIC CHARGES
----------------------
   0 N :   -0.445850
   1 H :    0.148533
   2 H :    0.148826
   3 H :    0.148491

  Mayer bond orders larger than 0.1
B(  0-N ,  1-H ) :   0.9617 B(  0-N ,  2-H ) :   0.9616 B(  0-N ,  3-H ) :   0.9617

Dispersion correction           -0.000192815
FINAL SINGLE POINT ENERGY       -56.287780558787

DIPOLE MOMENT
-------------
                                X             Y             Z
Electronic contribution:     -0.38859      -1.08446       0.16391
Nuclear contribution   :      0.61486       1.71925      -0.26213
                        -----------------------------------------
Total Dipole Moment    :      0.22627       0.63479      -0.09822
                        -----------------------------------------
Magnitude (a.u.)       :      0.68103
Magnitude (Debye)      :      1.73103

                             ****ORCA TERMINATED NORMALLY****
TOTAL RUN TIME: 0 days 0 hours 0 minutes 5 seconds 276 msec
