                         Program Version 4.0.0.2 - RELEASE -
|  1> ! WB97X-D3 6-31G(d) VerySlowConv
|  2> ! KDIIS NOSOSCF
|  3> %base "Scan_13"
|  4>
|  5> %scf
|  6> maxiter 999
|  7> end
|  8>
|  9> * xyz 0 1
| 10> N         -0.166581458744    0.689166073453    0.056291463138
| 11> H          1.438538809448    1.038493031835    0.003032739152
| 12> H         -0.535051528773    1.546115760999   -1.296906210118
| 13> H         -0.535055821932    1.910445133713    1.092622007828
| 14> **                         ****END OF INPUT****

CARTESIAN COORDINATES (ANGSTROEM)
---------------------------------
  N     -0.166581    0.689166    0.056291
  H      1.438539    1.038493    0.003033
  H     -0.535052    1.546116   -1.296906
  H     -0.535056    1.910445    1.092622

 Total Charge           Charge          ....    0
 Multiplicity           Mult            ....    1
 Number of Electrons    NEL             ....   10
 Basis Dimension        Dim             ....   20

ORBITAL ENERGIES
----------------

  NO   OCC          E(Eh)            E(eV)
   0   2.0000     -14.560428      -396.2094
   1   2.0000      -0.846640       -23.0383
   2   2.0000      -0.426991       -11.6190
   3   2.0000      -0.426920       -11.6171
   4   2.0000      -0.394388       -10.7318
   5   0.0000       0.003241         0.0882
   6   0.0000       0.038163         1.0385
   7   0.0000       0.038296         1.0421
   8   0.0000       0.735042        20.0015
   9   0.0000       0.837193        22.7812

MULLIKEN ATOMIC CHARGES
-----------------------
   0 N :   -0.372482
   1 H :    0.124094
   2 H :    0.124080
   3 H :    0.124308
Sum of atomic charges:   -0.0000000

LOEWDIN ATOMIC CHARGES
----------------------
   0 N :   -0.386983
   1 H :    0.128976
   2 H :    0.128893
   3 H :    0.129114

  Mayer bond orders larger than 0.1
B(  0-N ,  1-H ) :   0.9740 B(  0-N ,  2-H ) :   0.9741 B(  0-N ,  3-H ) :   0.9740

Dispersion correction           -0.000296386
FINAL SINGLE POINT ENERGY       -56.228546430686

DIPOLE MOMENT
-------------
                                X             Y             Z
Electronic contribution:     -0.46071      -1.28557       0.19578
Nuclear contribution   :      0.66960       1.87230      -0.28547
                        -----------------------------------------
Total Dipole Moment    :      0.20888       0.58673      -0.08968
                        -----------------------------------------
Magnitude (a.u.)       :      0.62923
Magnitude (Debye)      :      1.59937

                             ****ORCA TERMINATED NORMALLY****
TOTAL RUN TIME: 0 days 0 hours 0 minutes 3 seconds 945 msec
