                         Program Version 4.0.0.2 - RELEASE -
|  1> ! WB97X-D3 6-31G(d) VerySlowConv
|  2> ! KDIIS NOSOSCF
|  3> %base "Scan_14"
|  4>
|  5> %scf
|  6> maxiter 999
|  7> end
|  8>
|  9> * xyz 0 1
| 10> N         -0.184059389158    0.640295030982    0.063742758496
| 11> H          1.524791936487    1.026673402528    0.004835022232
| 12> H         -0.569438995707    1.565325831078   -1.374565900563
| 13> H         -0.569443551622    1.951925735412    1.161028119835
| 14> **                         ****END OF INPUT****

CARTESIAN COORDINATES (ANGSTROEM)
---------------------------------
  N     -0.184059    0.640295    0.063743
  H      1.524792    1.026673    0.004835
  H     -0.569439    1.565326   -1.374566
  H     -0.569444    1.951926    1.161028

 Total Charge           Charge          ....    0
 Multiplicity           Mult            ....    1
 Number of Electrons    NEL             ....   10
 Basis Dimension        Dim             ....   20

ORBITAL ENERGIES
----------------

  NO   OCC          E(Eh)            E(eV)
   0   2.0000     -14.573239      -396.5580
   1   2.0000      -0.841544       -22.8996
   2   2.0000      -0.414771       -11.2865
   3   2.0000      -0.414708       -11.2848
   4   2.0000      -0.393065       -10.6958
   5   0.0000      -0.018033        -0.4907
   6   0.0000       0.010182         0.2771
   7   0.0000       0.010308         0.2805
   8   0.0000       0.740868        20.1600
   9   0.0000       0.836076        22.7508

MULLIKEN ATOMIC CHARGES
-----------------------
   0 N :   -0.301650
   1 H :    0.100701
   2 H :    0.100284
   3 H :    0.100665
Sum of atomic charges:   -0.0000000

LOEWDIN ATOMIC CHARGES
----------------------
   0 N :   -0.333099
   1 H :    0.111160
   2 H :    0.110826
   3 H :    0.111113

  Mayer bond orders larger than 0.1
B(  0-N ,  1-H ) :   0.9822 B(  0-N ,  2-H ) :   0.9824 B(  0-N ,  3-H ) :   0.9822

Dispersion correction           -0.000398903
FINAL SINGLE POINT ENERGY       -56.171177136937

DIPOLE MOMENT
-------------
                                X             Y             Z
Electronic contribution:     -0.53040      -1.48165       0.22604
Nuclear contribution   :      0.72352       2.02307      -0.30845
                        -----------------------------------------
Total Dipole Moment    :      0.19312       0.54142      -0.08241
                        -----------------------------------------
Magnitude (a.u.)       :      0.58071
Magnitude (Debye)      :      1.47605

                             ****ORCA TERMINATED NORMALLY****
TOTAL RUN TIME: 0 days 0 hours 0 minutes 4 seconds 171 msec
