                         Program Version 4.0.0.2 - RELEASE -
|  1> ! WB97X-D3 6-31G(d) VerySlowConv
|  2> ! KDIIS NOSOSCF
|  3> %base "Scan_15"
|  4>
|  5> %scf
|  6> maxiter 999
|  7> end
|  8>
|  9> * xyz 0 1
| 10> N         -0.202699462256    0.588174477776    0.071689503359
| 11> H          1.611515553159    1.015907899411    0.006476582904
| 12> H         -0.603480634971    1.585622083809   -1.452468443889
| 13> H         -0.603485455932    1.994515539004    1.229342357625
| 14> **                         ****END OF INPUT****

CARTESIAN COORDINATES (ANGSTROEM)
---------------------------------
  N     -0.202699    0.588174    0.071690
  H      1.611516    1.015908    0.006477
  H     -0.603481    1.585622   -1.452468
  H     -0.603485    1.994516    1.229342

 Total Charge           Charge          ....    0
 Multiplicity           Mult            ....    1
 Number of Electrons    NEL             ....   10
 Basis Dimension        Dim             ....   20

ORBITAL ENERGIES
----------------

  NO   OCC          E(Eh)            E(eV)
   0   2.0000     -14.582688      -396.8151
   1   2.0000      -0.838412       -22.8143
   2   2.0000      -0.403609       -10.9828
   3   2.0000      -0.403535       -10.9808
   4   2.0000      -0.389922       -10.6103
   5   0.0000      -0.036507        -0.9934
   6   0.0000      -0.014505        -0.3947
   7   0.0000      -0.014338        -0.3902
   8   0.0000       0.750975        20.4351
   9   0.0000       0.836024        22.7494

MULLIKEN ATOMIC CHARGES
-----------------------
   0 N :   -0.245908
   1 H :    0.082269
   2 H :    0.081635
   3 H :    0.082004
Sum of atomic charges:   -0.0000000

LOEWDIN ATOMIC CHARGES
----------------------
   0 N :   -0.286767
   1 H :    0.095830
   2 H :    0.095344
   3 H :    0.095593

  Mayer bond orders larger than 0.1
B(  0-N ,  1-H ) :   0.9873 B(  0-N ,  2-H ) :   0.9874 B(  0-N ,  3-H ) :   0.9873

Dispersion correction           -0.000463545
FINAL SINGLE POINT ENERGY       -56.116111196664

DIPOLE MOMENT
-------------
                                X             Y             Z
Electronic contribution:     -0.60041      -1.67920       0.25637
Nuclear contribution   :      0.78102       2.18387      -0.33297
                        -----------------------------------------
Total Dipole Moment    :      0.18061       0.50467      -0.07660
                        -----------------------------------------
Magnitude (a.u.)       :      0.54146
Magnitude (Debye)      :      1.37628

                             ****ORCA TERMINATED NORMALLY****
TOTAL RUN TIME: 0 days 0 hours 0 minutes 14 seconds 392 msec
