                         Program Version 4.0.0.2 - RELEASE -
|  1> ! WB97X-D3 6-31G(d) VerySlowConv
|  2> ! KDIIS NOSOSCF
|  3> %base "Scan_16"
|  4>
|  5> %scf
|  6> maxiter 999
|  7> end
|  8>
|  9> * xyz 0 1
| 10> N         -0.220325926999    0.538888101879    0.079204128523
| 11> H          1.701517952778    1.002933613015    0.008454906893
| 12> H         -0.639668453231    1.605104909389   -1.533607432321
| 13> H         -0.639673572548    2.037293375717    1.300988396904
| 14> **                         ****END OF INPUT****

CARTESIAN COORDINATES (ANGSTROEM)
---------------------------------
  N     -0.220326    0.538888    0.079204
  H      1.701518    1.002934    0.008455
  H     -0.639668    1.605105   -1.533607
  H     -0.639674    2.037293    1.300988

 Total Charge           Charge          ....    0
 Multiplicity           Mult            ....    1
 Number of Electrons    NEL             ....   10
 Basis Dimension        Dim             ....   20

ORBITAL ENERGIES
----------------

  NO   OCC          E(Eh)            E(eV)
   0   2.0000     -14.589743      -397.0071
   1   2.0000      -0.836829       -22.7713
   2   2.0000      -0.393961       -10.7202
   3   2.0000      -0.393861       -10.7175
   4   2.0000      -0.385177       -10.4812
   5   0.0000      -0.052826        -1.4375
   6   0.0000      -0.035896        -0.9768
   7   0.0000      -0.035696        -0.9713
   8   0.0000       0.761958        20.7339
   9   0.0000       0.833763        22.6878

MULLIKEN ATOMIC CHARGES
-----------------------
   0 N :   -0.203331
   1 H :    0.068149
   2 H :    0.067363
   3 H :    0.067819
Sum of atomic charges:   -0.0000000

LOEWDIN ATOMIC CHARGES
----------------------
   0 N :   -0.247787
   1 H :    0.082901
   2 H :    0.082268
   3 H :    0.082618

  Mayer bond orders larger than 0.1
B(  0-N ,  1-H ) :   0.9901 B(  0-N ,  2-H ) :   0.9903 B(  0-N ,  3-H ) :   0.9903

Dispersion correction           -0.000485678
FINAL SINGLE POINT ENERGY       -56.064304202849

DIPOLE MOMENT
-------------
                                X             Y             Z
Electronic contribution:     -0.66581      -1.86386       0.28516
Nuclear contribution   :      0.83540       2.33592      -0.35615
                        -----------------------------------------
Total Dipole Moment    :      0.16960       0.47206      -0.07100
                        -----------------------------------------
Magnitude (a.u.)       :      0.50660
Magnitude (Debye)      :      1.28768

                             ****ORCA TERMINATED NORMALLY****
TOTAL RUN TIME: 0 days 0 hours 0 minutes 4 seconds 216 msec
