                         Program Version 4.0.0.2 - RELEASE -
|  1> ! WB97X-D3 6-31G(d) VerySlowConv
|  2> ! KDIIS NOSOSCF
|  3> %base "Scan_17"
|  4>
|  5> %scf
|  6> maxiter 999
|  7> end
|  8>
|  9> * xyz 0 1
| 10> N         -0.240419590444    0.482703212423    0.087770846462
| 11> H          1.785580773623    0.994622146734    0.009721706780
| 12> H         -0.671652469338    1.626641735529   -1.608776507222
| 13> H         -0.671658713841    2.080252905314    1.366323953980
| 14> **                         ****END OF INPUT****

CARTESIAN COORDINATES (ANGSTROEM)
---------------------------------
  N     -0.240420    0.482703    0.087771
  H      1.785581    0.994622    0.009722
  H     -0.671652    1.626642   -1.608777
  H     -0.671659    2.080253    1.366324

 Total Charge           Charge          ....    0
 Multiplicity           Mult            ....    1
 Number of Electrons    NEL             ....   10
 Basis Dimension        Dim             ....   20

ORBITAL ENERGIES
----------------

  NO   OCC          E(Eh)            E(eV)
   0   2.0000     -14.594614      -397.1396
   1   2.0000      -0.836265       -22.7559
   2   2.0000      -0.385297       -10.4845
   3   2.0000      -0.385158       -10.4807
   4   2.0000      -0.380289       -10.3482
   5   0.0000      -0.066472        -1.8088
   6   0.0000      -0.054464        -1.4820
   7   0.0000      -0.054267        -1.4767
   8   0.0000       0.770739        20.9729
   9   0.0000       0.826182        22.4815

MULLIKEN ATOMIC CHARGES
-----------------------
   0 N :   -0.172143
   1 H :    0.057664
   2 H :    0.056957
   3 H :    0.057522
Sum of atomic charges:    0.0000000

LOEWDIN ATOMIC CHARGES
----------------------
   0 N :   -0.216480
   1 H :    0.072386
   2 H :    0.071805
   3 H :    0.072289

  Mayer bond orders larger than 0.1
B(  0-N ,  1-H ) :   0.9913 B(  0-N ,  2-H ) :   0.9915 B(  0-N ,  3-H ) :   0.9915

Dispersion correction           -0.000491548
FINAL SINGLE POINT ENERGY       -56.016723480804

DIPOLE MOMENT
-------------
                                X             Y             Z
Electronic contribution:     -0.73559      -2.05901       0.31555
Nuclear contribution   :      0.89739       2.50925      -0.38258
                        -----------------------------------------
Total Dipole Moment    :      0.16180       0.45024      -0.06703
                        -----------------------------------------
Magnitude (a.u.)       :      0.48311
Magnitude (Debye)      :      1.22796

                             ****ORCA TERMINATED NORMALLY****
TOTAL RUN TIME: 0 days 0 hours 0 minutes 4 seconds 286 msec
