                         Program Version 4.0.0.2 - RELEASE -
|  1> ! WB97X-D3 6-31G(d) VerySlowConv
|  2> ! KDIIS NOSOSCF
|  3> %base "Scan_18"
|  4>
|  5> %scf
|  6> maxiter 999
|  7> end
|  8>
|  9> * xyz 0 1
| 10> N         -0.262290605462    0.421554392772    0.097099089138
| 11> H          1.865626032426    0.989576209885    0.010481250565
| 12> H         -0.700732147481    1.649664776407   -1.679891154711
| 13> H         -0.700753279483    2.123424620936    1.427350815009
| 14> **                         ****END OF INPUT****

CARTESIAN COORDINATES (ANGSTROEM)
---------------------------------
  N     -0.262291    0.421554    0.097099
  H      1.865626    0.989576    0.010481
  H     -0.700732    1.649665   -1.679891
  H     -0.700753    2.123425    1.427351

 Total Charge           Charge          ....    0
 Multiplicity           Mult            ....    1
 Number of Electrons    NEL             ....   10
 Basis Dimension        Dim             ....   20

ORBITAL ENERGIES
----------------

  NO   OCC          E(Eh)            E(eV)
   0   2.0000     -14.597829      -397.2271
   1   2.0000      -0.836265       -22.7559
   2   2.0000      -0.377544       -10.2735
   3   2.0000      -0.377352       -10.2683
   4   2.0000      -0.375115       -10.2074
   5   0.0000      -0.078118        -2.1257
   6   0.0000      -0.070688        -1.9235
   7   0.0000      -0.070452        -1.9171
   8   0.0000       0.776446        21.1282
   9   0.0000       0.812966        22.1219

MULLIKEN ATOMIC CHARGES
-----------------------
   0 N :   -0.149376
   1 H :    0.050081
   2 H :    0.049634
   3 H :    0.049661
Sum of atomic charges:   -0.0000000

LOEWDIN ATOMIC CHARGES
----------------------
   0 N :   -0.191303
   1 H :    0.064005
   2 H :    0.063653
   3 H :    0.063645

  Mayer bond orders larger than 0.1
B(  0-N ,  1-H ) :   0.9912 B(  0-N ,  2-H ) :   0.9914 B(  0-N ,  3-H ) :   0.9915

Dispersion correction           -0.000499559
FINAL SINGLE POINT ENERGY       -55.972831591401

DIPOLE MOMENT
-------------
                                X             Y             Z
Electronic contribution:     -0.80814      -2.26301       0.34548
Nuclear contribution   :      0.96487       2.69790      -0.41136
                        -----------------------------------------
Total Dipole Moment    :      0.15673       0.43490      -0.06588
                        -----------------------------------------
Magnitude (a.u.)       :      0.46695
Magnitude (Debye)      :      1.18688

                             ****ORCA TERMINATED NORMALLY****
TOTAL RUN TIME: 0 days 0 hours 0 minutes 15 seconds 820 msec
