                         Program Version 4.0.0.2 - RELEASE -
|  1> ! WB97X-D3 6-31G(d) VerySlowConv
|  2> ! KDIIS NOSOSCF
|  3> %base "Scan_19"
|  4>
|  5> %scf
|  6> maxiter 999
|  7> end
|  8>
|  9> * xyz 0 1
| 10> N         -0.313698474419    0.277810792489    0.119016203079
| 11> H          1.868094895694    1.042616892464    0.002393284434
| 12> H         -0.676262161825    1.697046610832   -1.673487435886
| 13> H         -0.676284259449    2.166745704215    1.407117948374
| 14> **                         ****END OF INPUT****

CARTESIAN COORDINATES (ANGSTROEM)
---------------------------------
  N     -0.313698    0.277811    0.119016
  H      1.868095    1.042617    0.002393
  H     -0.676262    1.697047   -1.673487
  H     -0.676284    2.166746    1.407118

 Total Charge           Charge          ....    0
 Multiplicity           Mult            ....    1
 Number of Electrons    NEL             ....   10
 Basis Dimension        Dim             ....   20

ORBITAL ENERGIES
----------------

  NO   OCC          E(Eh)            E(eV)
   0   2.0000     -14.599248      -397.2657
   1   2.0000      -0.836539       -22.7634
   2   2.0000      -0.374068       -10.1789
   3   2.0000      -0.369094       -10.0436
   4   2.0000      -0.368811       -10.0359
   5   0.0000      -0.086589        -2.3562
   6   0.0000      -0.086231        -2.3465
   7   0.0000      -0.084457        -2.2982
   8   0.0000       0.770513        20.9667
   9   0.0000       0.795441        21.6450

MULLIKEN ATOMIC CHARGES
-----------------------
   0 N :   -0.131165
   1 H :    0.043624
   2 H :    0.044039
   3 H :    0.043502
Sum of atomic charges:   -0.0000000

LOEWDIN ATOMIC CHARGES
----------------------
   0 N :   -0.170649
   1 H :    0.056747
   2 H :    0.057243
   3 H :    0.056658

  Mayer bond orders larger than 0.1
B(  0-N ,  1-H ) :   0.9802 B(  0-N ,  2-H ) :   0.9810 B(  0-N ,  3-H ) :   0.9811

Dispersion correction           -0.000554335
FINAL SINGLE POINT ENERGY       -55.933745902736

DIPOLE MOMENT
-------------
                                X             Y             Z
Electronic contribution:     -0.96083      -2.68372       0.40773
Nuclear contribution   :      1.12346       3.14136      -0.47898
                        -----------------------------------------
Total Dipole Moment    :      0.16263       0.45764      -0.07125
                        -----------------------------------------
Magnitude (a.u.)       :      0.49087
Magnitude (Debye)      :      1.24770

                             ****ORCA TERMINATED NORMALLY****
TOTAL RUN TIME: 0 days 0 hours 0 minutes 4 seconds 569 msec
