                         Program Version 4.0.0.2 - RELEASE -
|  1> ! WB97X-D3 6-31G(d) VerySlowConv
|  2> ! KDIIS NOSOSCF
|  3> %base "Scan_2"
|  4>
|  5> %scf
|  6> maxiter 999
|  7> end
|  8>
|  9> * xyz 0 1
| 10> N          0.050422172485    1.295942278680   -0.036222817857
| 11> H          0.852901595964    1.015637961673    0.006516392497
| 12> H         -0.350735578934    1.325222767163   -0.786279778924
| 13> H         -0.350738189514    1.547416992483    0.671026204284
| 14> **                         ****END OF INPUT****

CARTESIAN COORDINATES (ANGSTROEM)
---------------------------------
  N      0.050422    1.295942   -0.036223
  H      0.852902    1.015638    0.006516
  H     -0.350736    1.325223   -0.786280
  H     -0.350738    1.547417    0.671026

 Total Charge           Charge          ....    0
 Multiplicity           Mult            ....    1
 Number of Electrons    NEL             ....   10
 Basis Dimension        Dim             ....   20

ORBITAL ENERGIES
----------------

  NO   OCC          E(Eh)            E(eV)
   0   2.0000     -14.336534      -390.1169
   1   2.0000      -1.002831       -27.2884
   2   2.0000      -0.624238       -16.9864
   3   2.0000      -0.624153       -16.9841
   4   2.0000      -0.325042        -8.8448
   5   0.0000       0.234087         6.3698
   6   0.0000       0.319647         8.6980
   7   0.0000       0.319716         8.6999
   8   0.0000       0.795513        21.6470
   9   0.0000       0.796813        21.6824

MULLIKEN ATOMIC CHARGES
-----------------------
   0 N :   -0.974807
   1 H :    0.325269
   2 H :    0.324913
   3 H :    0.324625
Sum of atomic charges:    0.0000000

LOEWDIN ATOMIC CHARGES
----------------------
   0 N :   -0.677191
   1 H :    0.225877
   2 H :    0.225692
   3 H :    0.225621

  Mayer bond orders larger than 0.1
B(  0-N ,  1-H ) :   0.8844 B(  0-N ,  2-H ) :   0.8849 B(  0-N ,  3-H ) :   0.8850

Dispersion correction           -0.000002750
FINAL SINGLE POINT ENERGY       -56.434238861407

DIPOLE MOMENT
-------------
                                X             Y             Z
Electronic contribution:      0.00017      -0.00004       0.00023
Nuclear contribution   :      0.00012       0.00035      -0.00005
                        -----------------------------------------
Total Dipole Moment    :      0.00029       0.00031       0.00018
                        -----------------------------------------
Magnitude (a.u.)       :      0.00046
Magnitude (Debye)      :      0.00117

                             ****ORCA TERMINATED NORMALLY****
TOTAL RUN TIME: 0 days 0 hours 0 minutes 3 seconds 140 msec
