                         Program Version 4.0.0.2 - RELEASE -
|  1> ! WB97X-D3 6-31G(d) VerySlowConv
|  2> ! KDIIS NOSOSCF
|  3> %base "Scan_20"
|  4>
|  5> %scf
|  6> maxiter 999
|  7> end
|  8>
|  9> * xyz 0 1
| 10> N         -0.436487123091   -0.304162857450    0.383209835833
| 11> H          0.937990839154    1.396214409447   -0.713095029982
| 12> H          0.250425683951    1.953034386977   -0.208427125170
| 13> H         -0.550079400014    2.139134061027    0.393352319319
| 14> **                         ****END OF INPUT****

CARTESIAN COORDINATES (ANGSTROEM)
---------------------------------
  N     -0.436487   -0.304163    0.383210
  H      0.937991    1.396214   -0.713095
  H      0.250426    1.953034   -0.208427
  H     -0.550079    2.139134    0.393352

 Total Charge           Charge          ....    0
 Multiplicity           Mult            ....    1
 Number of Electrons    NEL             ....   10
 Basis Dimension        Dim             ....   20

ORBITAL ENERGIES
----------------

  NO   OCC          E(Eh)            E(eV)
   0   2.0000     -14.560858      -396.2211
   1   2.0000      -0.821438       -22.3525
   2   2.0000      -0.595384       -16.2012
   3   2.0000      -0.353205        -9.6112
   4   2.0000      -0.341388        -9.2896
   5   0.0000      -0.104023        -2.8306
   6   0.0000      -0.077445        -2.1074
   7   0.0000       0.192316         5.2332
   8   0.0000       0.762561        20.7503
   9   0.0000       0.770083        20.9550

MULLIKEN ATOMIC CHARGES
-----------------------
   0 N :   -0.105010
   1 H :    0.090604
   2 H :   -0.075972
   3 H :    0.090378
Sum of atomic charges:   -0.0000000

LOEWDIN ATOMIC CHARGES
----------------------
   0 N :   -0.122639
   1 H :    0.052654
   2 H :    0.017692
   3 H :    0.052293

  Mayer bond orders larger than 0.1
B(  0-N ,  1-H ) :   0.5100 B(  0-N ,  3-H ) :   0.5091 B(  1-H ,  2-H ) :   0.4828
B(  2-H ,  3-H ) :   0.4836

Dispersion correction           -0.000249195
FINAL SINGLE POINT ENERGY       -56.067946190772

DIPOLE MOMENT
-------------
                                X             Y             Z
Electronic contribution:     -1.37301      -4.51219       1.18260
Nuclear contribution   :      1.50228       4.93680      -1.29404
                        -----------------------------------------
Total Dipole Moment    :      0.12927       0.42460      -0.11144
                        -----------------------------------------
Magnitude (a.u.)       :      0.45762
Magnitude (Debye)      :      1.16318

                             ****ORCA TERMINATED NORMALLY****
TOTAL RUN TIME: 0 days 0 hours 0 minutes 4 seconds 77 msec
