                         Program Version 4.0.0.2 - RELEASE -
|  1> ! WB97X-D3 6-31G(d) VerySlowConv
|  2> ! KDIIS NOSOSCF
|  3> %base "Scan_21"
|  4>
|  5> %scf
|  6> maxiter 999
|  7> end
|  8>
|  9> * xyz 0 1
| 10> N         -0.459537112198   -0.379812112704    0.403037592995
| 11> H          0.947530427894    1.424175424332   -0.721058998659
| 12> H          0.256053045825    1.971983406227   -0.213560177582
| 13> H         -0.542196361521    2.167873282145    0.386621583245
| 14> **                         ****END OF INPUT****

CARTESIAN COORDINATES (ANGSTROEM)
---------------------------------
  N     -0.459537   -0.379812    0.403038
  H      0.947530    1.424175   -0.721059
  H      0.256053    1.971983   -0.213560
  H     -0.542196    2.167873    0.386622

 Total Charge           Charge          ....    0
 Multiplicity           Mult            ....    1
 Number of Electrons    NEL             ....   10
 Basis Dimension        Dim             ....   20

ORBITAL ENERGIES
----------------

  NO   OCC          E(Eh)            E(eV)
   0   2.0000     -14.558795      -396.1649
   1   2.0000      -0.819232       -22.2924
   2   2.0000      -0.595574       -16.2064
   3   2.0000      -0.352139        -9.5822
   4   2.0000      -0.334901        -9.1131
   5   0.0000      -0.110220        -2.9992
   6   0.0000      -0.077636        -2.1126
   7   0.0000       0.192933         5.2500
   8   0.0000       0.742789        20.2123
   9   0.0000       0.766293        20.8519

MULLIKEN ATOMIC CHARGES
-----------------------
   0 N :   -0.103316
   1 H :    0.090848
   2 H :   -0.078076
   3 H :    0.090544
Sum of atomic charges:   -0.0000000

LOEWDIN ATOMIC CHARGES
----------------------
   0 N :   -0.117638
   1 H :    0.051652
   2 H :    0.014759
   3 H :    0.051226

  Mayer bond orders larger than 0.1
B(  0-N ,  1-H ) :   0.5059 B(  0-N ,  3-H ) :   0.5051 B(  1-H ,  2-H ) :   0.4869
B(  2-H ,  3-H ) :   0.4876

Dispersion correction           -0.000322492
FINAL SINGLE POINT ENERGY       -56.058323400784

DIPOLE MOMENT
-------------
                                X             Y             Z
Electronic contribution:     -1.44036      -4.73421       1.24064
Nuclear contribution   :      1.57339       5.17018      -1.35521
                        -----------------------------------------
Total Dipole Moment    :      0.13302       0.43597      -0.11456
                        -----------------------------------------
Magnitude (a.u.)       :      0.46999
Magnitude (Debye)      :      1.19462

                             ****ORCA TERMINATED NORMALLY****
TOTAL RUN TIME: 0 days 0 hours 0 minutes 5 seconds 632 msec
