                         Program Version 4.0.0.2 - RELEASE -
|  1> ! WB97X-D3 6-31G(d) VerySlowConv
|  2> ! KDIIS NOSOSCF
|  3> %base "Scan_22"
|  4>
|  5> %scf
|  6> maxiter 999
|  7> end
|  8>
|  9> * xyz 0 1
| 10> N         -0.482355939414   -0.454940913421    0.422789874447
| 11> H          0.956665104239    1.451397335367   -0.729468185756
| 12> H          0.262597142840    1.991672379676   -0.217977171567
| 13> H         -0.535056307665    2.196091198379    0.379695482876
| 14> **                         ****END OF INPUT****

CARTESIAN COORDINATES (ANGSTROEM)
---------------------------------
  N     -0.482356   -0.454941    0.422790
  H      0.956665    1.451397   -0.729468
  H      0.262597    1.991672   -0.217977
  H     -0.535056    2.196091    0.379695

 Total Charge           Charge          ....    0
 Multiplicity           Mult            ....    1
 Number of Electrons    NEL             ....   10
 Basis Dimension        Dim             ....   20

ORBITAL ENERGIES
----------------

  NO   OCC          E(Eh)            E(eV)
   0   2.0000     -14.556825      -396.1114
   1   2.0000      -0.817398       -22.2425
   2   2.0000      -0.595498       -16.2043
   3   2.0000      -0.351146        -9.5552
   4   2.0000      -0.329038        -8.9536
   5   0.0000      -0.115649        -3.1470
   6   0.0000      -0.077407        -2.1063
   7   0.0000       0.193275         5.2593
   8   0.0000       0.726752        19.7759
   9   0.0000       0.764514        20.8035

MULLIKEN ATOMIC CHARGES
-----------------------
   0 N :   -0.102055
   1 H :    0.090814
   2 H :   -0.079285
   3 H :    0.090526
Sum of atomic charges:    0.0000000

LOEWDIN ATOMIC CHARGES
----------------------
   0 N :   -0.113609
   1 H :    0.050661
   2 H :    0.012814
   3 H :    0.050134

  Mayer bond orders larger than 0.1
B(  0-N ,  1-H ) :   0.5034 B(  0-N ,  3-H ) :   0.5019 B(  1-H ,  2-H ) :   0.4893
B(  2-H ,  3-H ) :   0.4907

Dispersion correction           -0.000401762
FINAL SINGLE POINT ENERGY       -56.049760267000

DIPOLE MOMENT
-------------
                                X             Y             Z
Electronic contribution:     -1.50709      -4.95398       1.29816
Nuclear contribution   :      1.64379       5.40196      -1.41614
                        -----------------------------------------
Total Dipole Moment    :      0.13669       0.44798      -0.11799
                        -----------------------------------------
Magnitude (a.u.)       :      0.48300
Magnitude (Debye)      :      1.22768

                             ****ORCA TERMINATED NORMALLY****
TOTAL RUN TIME: 0 days 0 hours 0 minutes 4 seconds 919 msec
