                         Program Version 4.0.0.2 - RELEASE -
|  1> ! WB97X-D3 6-31G(d) VerySlowConv
|  2> ! KDIIS NOSOSCF
|  3> %base "Scan_23"
|  4>
|  5> %scf
|  6> maxiter 999
|  7> end
|  8>
|  9> * xyz 0 1
| 10> N         -0.505151851362   -0.529542494408    0.442219095610
| 11> H          0.967121079865    1.477815701425   -0.736751660976
| 12> H          0.267458816856    2.011950690407   -0.225053509068
| 13> H         -0.527578045359    2.223996102575    0.374626074434
| 14> **                         ****END OF INPUT****

CARTESIAN COORDINATES (ANGSTROEM)
---------------------------------
  N     -0.505152   -0.529542    0.442219
  H      0.967121    1.477816   -0.736752
  H      0.267459    2.011951   -0.225054
  H     -0.527578    2.223996    0.374626

 Total Charge           Charge          ....    0
 Multiplicity           Mult            ....    1
 Number of Electrons    NEL             ....   10
 Basis Dimension        Dim             ....   20

ORBITAL ENERGIES
----------------

  NO   OCC          E(Eh)            E(eV)
   0   2.0000     -14.554849      -396.0576
   1   2.0000      -0.815796       -22.1989
   2   2.0000      -0.594942       -16.1892
   3   2.0000      -0.350093        -9.5265
   4   2.0000      -0.323663        -8.8073
   5   0.0000      -0.120407        -3.2764
   6   0.0000      -0.077039        -2.0963
   7   0.0000       0.193340         5.2611
   8   0.0000       0.715386        19.4666
   9   0.0000       0.764489        20.8028

MULLIKEN ATOMIC CHARGES
-----------------------
   0 N :   -0.101648
   1 H :    0.090969
   2 H :   -0.080123
   3 H :    0.090802
Sum of atomic charges:   -0.0000000

LOEWDIN ATOMIC CHARGES
----------------------
   0 N :   -0.110916
   1 H :    0.050024
   2 H :    0.011340
   3 H :    0.049551

  Mayer bond orders larger than 0.1
B(  0-N ,  1-H ) :   0.5014 B(  0-N ,  3-H ) :   0.4998 B(  1-H ,  2-H ) :   0.4912
B(  2-H ,  3-H ) :   0.4927

Dispersion correction           -0.000475581
FINAL SINGLE POINT ENERGY       -56.042104233290

DIPOLE MOMENT
-------------
                                X             Y             Z
Electronic contribution:     -1.57280      -5.17004       1.35497
Nuclear contribution   :      1.71411       5.63211      -1.47608
                        -----------------------------------------
Total Dipole Moment    :      0.14132       0.46206      -0.12112
                        -----------------------------------------
Magnitude (a.u.)       :      0.49814
Magnitude (Debye)      :      1.26617

                             ****ORCA TERMINATED NORMALLY****
TOTAL RUN TIME: 0 days 0 hours 0 minutes 6 seconds 344 msec
