                         Program Version 4.0.0.2 - RELEASE -
|  1> ! WB97X-D3 6-31G(d) VerySlowConv
|  2> ! KDIIS NOSOSCF
|  3> %base "Scan_24"
|  4>
|  5> %scf
|  6> maxiter 999
|  7> end
|  8>
|  9> * xyz 0 1
| 10> N         -0.527722869395   -0.603937722929    0.461812236206
| 11> H          0.975728834957    1.504172413953   -0.745317297691
| 12> H          0.274833060151    2.032624704618   -0.229016399125
| 13> H         -0.520989025713    2.251360604357    0.367561460610
| 14> **                         ****END OF INPUT****

CARTESIAN COORDINATES (ANGSTROEM)
---------------------------------
  N     -0.527723   -0.603938    0.461812
  H      0.975729    1.504172   -0.745317
  H      0.274833    2.032625   -0.229016
  H     -0.520989    2.251361    0.367561

 Total Charge           Charge          ....    0
 Multiplicity           Mult            ....    1
 Number of Electrons    NEL             ....   10
 Basis Dimension        Dim             ....   20

ORBITAL ENERGIES
----------------

  NO   OCC          E(Eh)            E(eV)
   0   2.0000     -14.552931      -396.0054
   1   2.0000      -0.814353       -22.1597
   2   2.0000      -0.594561       -16.1788
   3   2.0000      -0.349069        -9.4986
   4   2.0000      -0.318702        -8.6723
   5   0.0000      -0.124593        -3.3903
   6   0.0000      -0.076344        -2.0774
   7   0.0000       0.193581         5.2676
   8   0.0000       0.708200        19.2711
   9   0.0000       0.765792        20.8383

MULLIKEN ATOMIC CHARGES
-----------------------
   0 N :   -0.101519
   1 H :    0.091261
   2 H :   -0.080980
   3 H :    0.091238
Sum of atomic charges:   -0.0000000

LOEWDIN ATOMIC CHARGES
----------------------
   0 N :   -0.108918
   1 H :    0.049593
   2 H :    0.010249
   3 H :    0.049076

  Mayer bond orders larger than 0.1
B(  0-N ,  1-H ) :   0.5003 B(  0-N ,  3-H ) :   0.4978 B(  1-H ,  2-H ) :   0.4921
B(  2-H ,  3-H ) :   0.4944

Dispersion correction           -0.000530042
FINAL SINGLE POINT ENERGY       -56.035322854013

DIPOLE MOMENT
-------------
                                X             Y             Z
Electronic contribution:     -1.63812      -5.38425       1.41107
Nuclear contribution   :      1.78375       5.86162      -1.53653
                        -----------------------------------------
Total Dipole Moment    :      0.14563       0.47738      -0.12546
                        -----------------------------------------
Magnitude (a.u.)       :      0.51462
Magnitude (Debye)      :      1.30807

                             ****ORCA TERMINATED NORMALLY****
TOTAL RUN TIME: 0 days 0 hours 0 minutes 37 seconds 705 msec
