                         Program Version 4.0.0.2 - RELEASE -
|  1> ! WB97X-D3 6-31G(d) VerySlowConv
|  2> ! KDIIS NOSOSCF
|  3> %base "Scan_25"
|  4>
|  5> %scf
|  6> maxiter 999
|  7> end
|  8>
|  9> * xyz 0 1
| 10> N         -0.550346034526   -0.678084547318    0.481168466288
| 11> H          0.985277046471    1.530325612157   -0.752303299553
| 12> H          0.280231511659    2.053530743586   -0.235792327799
| 13> H         -0.513312523603    2.278448191575    0.361967161064
| 14> **                         ****END OF INPUT****

CARTESIAN COORDINATES (ANGSTROEM)
---------------------------------
  N     -0.550346   -0.678085    0.481168
  H      0.985277    1.530326   -0.752303
  H      0.280232    2.053531   -0.235792
  H     -0.513313    2.278448    0.361967

 Total Charge           Charge          ....    0
 Multiplicity           Mult            ....    1
 Number of Electrons    NEL             ....   10
 Basis Dimension        Dim             ....   20

ORBITAL ENERGIES
----------------

  NO   OCC          E(Eh)            E(eV)
   0   2.0000     -14.551067      -395.9547
   1   2.0000      -0.813006       -22.1230
   2   2.0000      -0.594036       -16.1645
   3   2.0000      -0.348055        -9.4711
   4   2.0000      -0.314110        -8.5474
   5   0.0000      -0.128304        -3.4913
   6   0.0000      -0.075363        -2.0507
   7   0.0000       0.193876         5.2756
   8   0.0000       0.705299        19.1922
   9   0.0000       0.768190        20.9035

MULLIKEN ATOMIC CHARGES
-----------------------
   0 N :   -0.101477
   1 H :    0.091394
   2 H :   -0.081267
   3 H :    0.091350
Sum of atomic charges:    0.0000000

LOEWDIN ATOMIC CHARGES
----------------------
   0 N :   -0.107364
   1 H :    0.049282
   2 H :    0.009567
   3 H :    0.048515

  Mayer bond orders larger than 0.1
B(  0-N ,  1-H ) :   0.4998 B(  0-N ,  3-H ) :   0.4960 B(  1-H ,  2-H ) :   0.4925
B(  2-H ,  3-H ) :   0.4961

Dispersion correction           -0.000557378
FINAL SINGLE POINT ENERGY       -56.029269936837

DIPOLE MOMENT
-------------
                                X             Y             Z
Electronic contribution:     -1.70262      -5.59693       1.46683
Nuclear contribution   :      1.85354       6.09037      -1.59624
                        -----------------------------------------
Total Dipole Moment    :      0.15092       0.49344      -0.12942
                        -----------------------------------------
Magnitude (a.u.)       :      0.53199
Magnitude (Debye)      :      1.35221

                             ****ORCA TERMINATED NORMALLY****
TOTAL RUN TIME: 0 days 0 hours 0 minutes 6 seconds 342 msec
