                         Program Version 4.0.0.2 - RELEASE -
|  1> ! WB97X-D3 6-31G(d) VerySlowConv
|  2> ! KDIIS NOSOSCF
|  3> %base "Scan_26"
|  4>
|  5> %scf
|  6> maxiter 999
|  7> end
|  8>
|  9> * xyz 0 1
| 10> N         -0.572717509066   -0.751875635935    0.500624353058
| 11> H          0.993904740424    1.555800109714   -0.761328058012
| 12> H          0.288256122220    2.074920848139   -0.239361319271
| 13> H         -0.507593353578    2.305374678081    0.355105024224
| 14> **                         ****END OF INPUT****

CARTESIAN COORDINATES (ANGSTROEM)
---------------------------------
  N     -0.572718   -0.751876    0.500624
  H      0.993905    1.555800   -0.761328
  H      0.288256    2.074921   -0.239361
  H     -0.507593    2.305375    0.355105

 Total Charge           Charge          ....    0
 Multiplicity           Mult            ....    1
 Number of Electrons    NEL             ....   10
 Basis Dimension        Dim             ....   20

ORBITAL ENERGIES
----------------

  NO   OCC          E(Eh)            E(eV)
   0   2.0000     -14.549400      -395.9093
   1   2.0000      -0.811848       -22.0915
   2   2.0000      -0.593191       -16.1415
   3   2.0000      -0.347121        -9.4456
   4   2.0000      -0.309891        -8.4325
   5   0.0000      -0.131652        -3.5824
   6   0.0000      -0.074483        -2.0268
   7   0.0000       0.193990         5.2787
   8   0.0000       0.705261        19.1911
   9   0.0000       0.771265        20.9872

MULLIKEN ATOMIC CHARGES
-----------------------
   0 N :   -0.101457
   1 H :    0.091459
   2 H :   -0.081585
   3 H :    0.091583
Sum of atomic charges:    0.0000000

LOEWDIN ATOMIC CHARGES
----------------------
   0 N :   -0.106109
   1 H :    0.048882
   2 H :    0.008949
   3 H :    0.048277

  Mayer bond orders larger than 0.1
B(  0-N ,  1-H ) :   0.4990 B(  0-N ,  3-H ) :   0.4952 B(  1-H ,  2-H ) :   0.4932
B(  2-H ,  3-H ) :   0.4967

Dispersion correction           -0.000560165
FINAL SINGLE POINT ENERGY       -56.023797834338

DIPOLE MOMENT
-------------
                                X             Y             Z
Electronic contribution:     -1.76743      -5.80853       1.52225
Nuclear contribution   :      1.92256       6.31802      -1.65627
                        -----------------------------------------
Total Dipole Moment    :      0.15513       0.50949      -0.13402
                        -----------------------------------------
Magnitude (a.u.)       :      0.54919
Magnitude (Debye)      :      1.39593

                             ****ORCA TERMINATED NORMALLY****
TOTAL RUN TIME: 0 days 0 hours 0 minutes 10 seconds 930 msec
