                         Program Version 4.0.0.2 - RELEASE -
|  1> ! WB97X-D3 6-31G(d) VerySlowConv
|  2> ! KDIIS NOSOSCF
|  3> %base "Scan_27"
|  4>
|  5> %scf
|  6> maxiter 999
|  7> end
|  8>
|  9> * xyz 0 1
| 10> N         -0.595219953276   -0.825596997948    0.519857284349
| 11> H          1.003463448901    1.581523310435   -0.767931746668
| 12> H          0.293447258852    2.096294166521   -0.246729798861
| 13> H         -0.499840754477    2.331999520992    0.349844261179
| 14> **                         ****END OF INPUT****

CARTESIAN COORDINATES (ANGSTROEM)
---------------------------------
  N     -0.595220   -0.825597    0.519857
  H      1.003463    1.581523   -0.767932
  H      0.293447    2.096294   -0.246730
  H     -0.499841    2.332000    0.349844

 Total Charge           Charge          ....    0
 Multiplicity           Mult            ....    1
 Number of Electrons    NEL             ....   10
 Basis Dimension        Dim             ....   20

ORBITAL ENERGIES
----------------

  NO   OCC          E(Eh)            E(eV)
   0   2.0000     -14.547298      -395.8521
   1   2.0000      -0.810348       -22.0507
   2   2.0000      -0.592287       -16.1169
   3   2.0000      -0.345763        -9.4087
   4   2.0000      -0.305663        -8.3175
   5   0.0000      -0.134365        -3.6563
   6   0.0000      -0.073142        -1.9903
   7   0.0000       0.194555         5.2941
   8   0.0000       0.708131        19.2692
   9   0.0000       0.774927        21.0868

MULLIKEN ATOMIC CHARGES
-----------------------
   0 N :   -0.102901
   1 H :    0.092556
   2 H :   -0.082025
   3 H :    0.092370
Sum of atomic charges:    0.0000000

LOEWDIN ATOMIC CHARGES
----------------------
   0 N :   -0.106552
   1 H :    0.049067
   2 H :    0.008408
   3 H :    0.049077

  Mayer bond orders larger than 0.1
B(  0-N ,  1-H ) :   0.4960 B(  0-N ,  3-H ) :   0.4970 B(  1-H ,  2-H ) :   0.4959
B(  2-H ,  3-H ) :   0.4949

Dispersion correction           -0.000546661
FINAL SINGLE POINT ENERGY       -56.018981451033

DIPOLE MOMENT
-------------
                                X             Y             Z
Electronic contribution:     -1.82942      -6.01208       1.57588
Nuclear contribution   :      1.99198       6.54546      -1.71560
                        -----------------------------------------
Total Dipole Moment    :      0.16256       0.53338      -0.13972
                        -----------------------------------------
Magnitude (a.u.)       :      0.57485
Magnitude (Debye)      :      1.46114

                             ****ORCA TERMINATED NORMALLY****
TOTAL RUN TIME: 0 days 0 hours 0 minutes 24 seconds 212 msec
