                         Program Version 4.0.0.2 - RELEASE -
|  1> ! WB97X-D3 6-31G(d) VerySlowConv
|  2> ! KDIIS NOSOSCF
|  3> %base "Scan_28"
|  4>
|  5> %scf
|  6> maxiter 999
|  7> end
|  8>
|  9> * xyz 0 1
| 10> N         -0.617525824311   -0.899131566657    0.539229176095
| 11> H          1.011502761065    1.606992590858   -0.776449997103
| 12> H          0.301514942138    2.117971397490   -0.250433639270
| 13> H         -0.493641878893    2.358387578309    0.342694460278
| 14> **                         ****END OF INPUT****

CARTESIAN COORDINATES (ANGSTROEM)
---------------------------------
  N     -0.617526   -0.899132    0.539229
  H      1.011503    1.606993   -0.776450
  H      0.301515    2.117971   -0.250434
  H     -0.493642    2.358388    0.342694

 Total Charge           Charge          ....    0
 Multiplicity           Mult            ....    1
 Number of Electrons    NEL             ....   10
 Basis Dimension        Dim             ....   20

ORBITAL ENERGIES
----------------

  NO   OCC          E(Eh)            E(eV)
   0   2.0000     -14.545487      -395.8028
   1   2.0000      -0.809180       -22.0189
   2   2.0000      -0.591479       -16.0950
   3   2.0000      -0.344661        -9.3787
   4   2.0000      -0.301845        -8.2136
   5   0.0000      -0.136886        -3.7249
   6   0.0000      -0.071993        -1.9590
   7   0.0000       0.195020         5.3068
   8   0.0000       0.712798        19.3962
   9   0.0000       0.778570        21.1860

MULLIKEN ATOMIC CHARGES
-----------------------
   0 N :   -0.103717
   1 H :    0.093211
   2 H :   -0.082414
   3 H :    0.092920
Sum of atomic charges:   -0.0000000

LOEWDIN ATOMIC CHARGES
----------------------
   0 N :   -0.106580
   1 H :    0.049091
   2 H :    0.008010
   3 H :    0.049480

  Mayer bond orders larger than 0.1
B(  0-N ,  1-H ) :   0.4942 B(  0-N ,  3-H ) :   0.4978 B(  1-H ,  2-H ) :   0.4975
B(  2-H ,  3-H ) :   0.4940

Dispersion correction           -0.000524980
FINAL SINGLE POINT ENERGY       -56.014660769018

DIPOLE MOMENT
-------------
                                X             Y             Z
Electronic contribution:     -1.89231      -6.21730       1.62944
Nuclear contribution   :      2.06080       6.77232      -1.77537
                        -----------------------------------------
Total Dipole Moment    :      0.16849       0.55502      -0.14593
                        -----------------------------------------
Magnitude (a.u.)       :      0.59811
Magnitude (Debye)      :      1.52027

                             ****ORCA TERMINATED NORMALLY****
TOTAL RUN TIME: 0 days 0 hours 0 minutes 6 seconds 472 msec
