                         Program Version 4.0.0.2 - RELEASE -
|  1> ! WB97X-D3 6-31G(d) VerySlowConv
|  2> ! KDIIS NOSOSCF
|  3> %base "Scan_29"
|  4>
|  5> %scf
|  6> maxiter 999
|  7> end
|  8>
|  9> * xyz 0 1
| 10> N         -0.639930188571   -0.972493671588    0.558352809055
| 11> H          1.021303136290    1.632297864042   -0.782758888792
| 12> H          0.306381156032    2.139693267157   -0.258473127073
| 13> H         -0.485904103752    2.384722540389    0.337919206809
| 14> **                         ****END OF INPUT****

CARTESIAN COORDINATES (ANGSTROEM)
---------------------------------
  N     -0.639930   -0.972494    0.558353
  H      1.021303    1.632298   -0.782759
  H      0.306381    2.139693   -0.258473
  H     -0.485904    2.384723    0.337919

 Total Charge           Charge          ....    0
 Multiplicity           Mult            ....    1
 Number of Electrons    NEL             ....   10
 Basis Dimension        Dim             ....   20

ORBITAL ENERGIES
----------------

  NO   OCC          E(Eh)            E(eV)
   0   2.0000     -14.545275      -395.7971
   1   2.0000      -0.809132       -22.0176
   2   2.0000      -0.591419       -16.0933
   3   2.0000      -0.344783        -9.3820
   4   2.0000      -0.299150        -8.1403
   5   0.0000      -0.139962        -3.8086
   6   0.0000      -0.071892        -1.9563
   7   0.0000       0.194763         5.2998
   8   0.0000       0.718157        19.5421
   9   0.0000       0.781127        21.2555

MULLIKEN ATOMIC CHARGES
-----------------------
   0 N :   -0.101198
   1 H :    0.091694
   2 H :   -0.082318
   3 H :    0.091822
Sum of atomic charges:    0.0000000

LOEWDIN ATOMIC CHARGES
----------------------
   0 N :   -0.103444
   1 H :    0.048065
   2 H :    0.007953
   3 H :    0.047426

  Mayer bond orders larger than 0.1
B(  0-N ,  1-H ) :   0.4979 B(  0-N ,  3-H ) :   0.4937 B(  1-H ,  2-H ) :   0.4939
B(  2-H ,  3-H ) :   0.4980

Dispersion correction           -0.000498792
FINAL SINGLE POINT ENERGY       -56.010645632940

DIPOLE MOMENT
-------------
                                X             Y             Z
Electronic contribution:     -1.95949      -6.44032       1.68803
Nuclear contribution   :      2.12991       6.99865      -1.83436
                        -----------------------------------------
Total Dipole Moment    :      0.17042       0.55833      -0.14633
                        -----------------------------------------
Magnitude (a.u.)       :      0.60182
Magnitude (Debye)      :      1.52971

                             ****ORCA TERMINATED NORMALLY****
TOTAL RUN TIME: 0 days 0 hours 0 minutes 47 seconds 427 msec
