                         Program Version 4.0.0.2 - RELEASE -
|  1> ! WB97X-D3 6-31G(d) VerySlowConv
|  2> ! KDIIS NOSOSCF
|  3> %base "Scan_30"
|  4>
|  5> %scf
|  6> maxiter 999
|  7> end
|  8>
|  9> * xyz 0 1
| 10> N         -0.662151914477   -1.045759599814    0.577657501874
| 11> H          1.028977969176    1.657567344030   -0.791278294605
| 12> H          0.314800795230    2.161647657028   -0.261889704694
| 13> H         -0.479776849929    2.410764598756    0.330550497425
| 14> **                         ****END OF INPUT****

CARTESIAN COORDINATES (ANGSTROEM)
---------------------------------
  N     -0.662152   -1.045760    0.577658
  H      1.028978    1.657567   -0.791278
  H      0.314801    2.161648   -0.261890
  H     -0.479777    2.410765    0.330550

 Total Charge           Charge          ....    0
 Multiplicity           Mult            ....    1
 Number of Electrons    NEL             ....   10
 Basis Dimension        Dim             ....   20

ORBITAL ENERGIES
----------------

  NO   OCC          E(Eh)            E(eV)
   0   2.0000     -14.537261      -395.5790
   1   2.0000      -0.802916       -21.8485
   2   2.0000      -0.586480       -15.9589
   3   2.0000      -0.338874        -9.2212
   4   2.0000      -0.291770        -7.9395
   5   0.0000      -0.138068        -3.7570
   6   0.0000      -0.065490        -1.7821
   7   0.0000       0.198477         5.4008
   8   0.0000       0.729502        19.8508
   9   0.0000       0.788519        21.4567

MULLIKEN ATOMIC CHARGES
-----------------------
   0 N :   -0.117563
   1 H :    0.100657
   2 H :   -0.082966
   3 H :    0.099872
Sum of atomic charges:   -0.0000000

LOEWDIN ATOMIC CHARGES
----------------------
   0 N :   -0.119328
   1 H :    0.056364
   2 H :    0.007084
   3 H :    0.055880

  Mayer bond orders larger than 0.1
B(  0-N ,  1-H ) :   0.4941 B(  0-N ,  3-H ) :   0.4950 B(  1-H ,  2-H ) :   0.4966
B(  2-H ,  3-H ) :   0.4958

Dispersion correction           -0.000468518
FINAL SINGLE POINT ENERGY       -56.007845760928

DIPOLE MOMENT
-------------
                                X             Y             Z
Electronic contribution:     -1.99376      -6.55383       1.71642
Nuclear contribution   :      2.19847       7.22468      -1.89392
                        -----------------------------------------
Total Dipole Moment    :      0.20471       0.67085      -0.17750
                        -----------------------------------------
Magnitude (a.u.)       :      0.72350
Magnitude (Debye)      :      1.83898

                             ****ORCA TERMINATED NORMALLY****
TOTAL RUN TIME: 0 days 0 hours 0 minutes 39 seconds 110 msec
