                         Program Version 4.0.0.2 - RELEASE -
|  1> ! WB97X-D3 6-31G(d) VerySlowConv
|  2> ! KDIIS NOSOSCF
|  3> %base "Scan_31"
|  4>
|  5> %scf
|  6> maxiter 999
|  7> end
|  8>
|  9> * xyz 0 1
| 10> N         -0.684486820542   -1.118896046341    0.596723043162
| 11> H          1.038598049266    1.682763591204   -0.797233714915
| 12> H          0.319526762192    2.183577274024   -0.270257293446
| 13> H         -0.471787990917    2.436775181113    0.325807965199
| 14> **                         ****END OF INPUT****

CARTESIAN COORDINATES (ANGSTROEM)
---------------------------------
  N     -0.684487   -1.118896    0.596723
  H      1.038598    1.682764   -0.797234
  H      0.319527    2.183577   -0.270257
  H     -0.471788    2.436775    0.325808

 Total Charge           Charge          ....    0
 Multiplicity           Mult            ....    1
 Number of Electrons    NEL             ....   10
 Basis Dimension        Dim             ....   20

ORBITAL ENERGIES
----------------

  NO   OCC          E(Eh)            E(eV)
   0   2.0000     -14.536948      -395.5705
   1   2.0000      -0.802788       -21.8450
   2   2.0000      -0.586438       -15.9578
   3   2.0000      -0.338793        -9.2190
   4   2.0000      -0.289386        -7.8746
   5   0.0000      -0.140596        -3.8258
   6   0.0000      -0.065359        -1.7785
   7   0.0000       0.198408         5.3990
   8   0.0000       0.736030        20.0284
   9   0.0000       0.790504        21.5107

MULLIKEN ATOMIC CHARGES
-----------------------
   0 N :   -0.115779
   1 H :    0.099866
   2 H :   -0.083052
   3 H :    0.098964
Sum of atomic charges:   -0.0000000

LOEWDIN ATOMIC CHARGES
----------------------
   0 N :   -0.117170
   1 H :    0.055325
   2 H :    0.007097
   3 H :    0.054747

  Mayer bond orders larger than 0.1
B(  0-N ,  1-H ) :   0.4939 B(  0-N ,  3-H ) :   0.4948 B(  1-H ,  2-H ) :   0.4967
B(  2-H ,  3-H ) :   0.4959

Dispersion correction           -0.000434311
FINAL SINGLE POINT ENERGY       -56.004584105460

DIPOLE MOMENT
-------------
                                X             Y             Z
Electronic contribution:     -2.05889      -6.76947       1.77321
Nuclear contribution   :      2.26738       7.45031      -1.95274
                        -----------------------------------------
Total Dipole Moment    :      0.20848       0.68084      -0.17953
                        -----------------------------------------
Magnitude (a.u.)       :      0.73433
Magnitude (Debye)      :      1.86652

                             ****ORCA TERMINATED NORMALLY****
TOTAL RUN TIME: 0 days 0 hours 2 minutes 53 seconds 447 msec
