                         Program Version 4.0.0.2 - RELEASE -
|  1> ! WB97X-D3 6-31G(d) VerySlowConv
|  2> ! KDIIS NOSOSCF
|  3> %base "Scan_32"
|  4>
|  5> %scf
|  6> maxiter 999
|  7> end
|  8>
|  9> * xyz 0 1
| 10> N         -0.706633333051   -1.191926465194    0.615970769817
| 11> H          1.045992542069    1.707822645249   -0.805872656941
| 12> H          0.328335966474    2.205764882505   -0.273306525161
| 13> H         -0.465845175492    2.462558937440    0.318248412284
| 14> **                         ****END OF INPUT****

CARTESIAN COORDINATES (ANGSTROEM)
---------------------------------
  N     -0.706633   -1.191926    0.615971
  H      1.045993    1.707823   -0.805873
  H      0.328336    2.205765   -0.273307
  H     -0.465845    2.462559    0.318248

 Total Charge           Charge          ....    0
 Multiplicity           Mult            ....    1
 Number of Electrons    NEL             ....   10
 Basis Dimension        Dim             ....   20

ORBITAL ENERGIES
----------------

  NO   OCC          E(Eh)            E(eV)
   0   2.0000     -14.542222      -395.7140
   1   2.0000      -0.807102       -21.9623
   2   2.0000      -0.589876       -16.0513
   3   2.0000      -0.342855        -9.3296
   4   2.0000      -0.290695        -7.9102
   5   0.0000      -0.146365        -3.9828
   6   0.0000      -0.069807        -1.8996
   7   0.0000       0.195505         5.3200
   8   0.0000       0.738686        20.1007
   9   0.0000       0.788527        21.4569

MULLIKEN ATOMIC CHARGES
-----------------------
   0 N :   -0.101085
   1 H :    0.092227
   2 H :   -0.082776
   3 H :    0.091633
Sum of atomic charges:   -0.0000000

LOEWDIN ATOMIC CHARGES
----------------------
   0 N :   -0.102126
   1 H :    0.046906
   2 H :    0.007410
   3 H :    0.047810

  Mayer bond orders larger than 0.1
B(  0-N ,  1-H ) :   0.4908 B(  0-N ,  3-H ) :   0.4998 B(  1-H ,  2-H ) :   0.5008
B(  2-H ,  3-H ) :   0.4919

Dispersion correction           -0.000397026
FINAL SINGLE POINT ENERGY       -56.000984352088

DIPOLE MOMENT
-------------
                                X             Y             Z
Electronic contribution:     -2.15054      -7.06482       1.85159
Nuclear contribution   :      2.33570       7.67561      -2.01212
                        -----------------------------------------
Total Dipole Moment    :      0.18515       0.61079      -0.16053
                        -----------------------------------------
Magnitude (a.u.)       :      0.65812
Magnitude (Debye)      :      1.67280

                             ****ORCA TERMINATED NORMALLY****
TOTAL RUN TIME: 0 days 0 hours 2 minutes 41 seconds 988 msec
