                         Program Version 4.0.0.2 - RELEASE -
|  1> ! WB97X-D3 6-31G(d) VerySlowConv
|  2> ! KDIIS NOSOSCF
|  3> %base "Scan_33"
|  4>
|  5> %scf
|  6> maxiter 999
|  7> end
|  8>
|  9> * xyz 0 1
| 10> N         -0.728908200404   -1.264868873690    0.634986781168
| 11> H          1.055506091127    1.732916019929   -0.811521448986
| 12> H          0.332900689308    2.227863096353   -0.282004168200
| 13> H         -0.457648580031    2.488309757408    0.313578836019
| 14> **                         ****END OF INPUT****

CARTESIAN COORDINATES (ANGSTROEM)
---------------------------------
  N     -0.728908   -1.264869    0.634987
  H      1.055506    1.732916   -0.811521
  H      0.332901    2.227863   -0.282004
  H     -0.457649    2.488310    0.313579

 Total Charge           Charge          ....    0
 Multiplicity           Mult            ....    1
 Number of Electrons    NEL             ....   10
 Basis Dimension        Dim             ....   20

ORBITAL ENERGIES
----------------

  NO   OCC          E(Eh)            E(eV)
   0   2.0000     -14.541552      -395.6958
   1   2.0000      -0.806651       -21.9501
   2   2.0000      -0.589469       -16.0403
   3   2.0000      -0.342406        -9.3173
   4   2.0000      -0.288304        -7.8452
   5   0.0000      -0.148241        -4.0338
   6   0.0000      -0.069378        -1.8879
   7   0.0000       0.195701         5.3253
   8   0.0000       0.745476        20.2854
   9   0.0000       0.790089        21.4994

MULLIKEN ATOMIC CHARGES
-----------------------
   0 N :   -0.100791
   1 H :    0.091869
   2 H :   -0.082869
   3 H :    0.091791
Sum of atomic charges:   -0.0000000

LOEWDIN ATOMIC CHARGES
----------------------
   0 N :   -0.101595
   1 H :    0.047649
   2 H :    0.007293
   3 H :    0.046653

  Mayer bond orders larger than 0.1
B(  0-N ,  1-H ) :   0.4983 B(  0-N ,  3-H ) :   0.4921 B(  1-H ,  2-H ) :   0.4933
B(  2-H ,  3-H ) :   0.4994

Dispersion correction           -0.000358438
FINAL SINGLE POINT ENERGY       -55.998329858043

DIPOLE MOMENT
-------------
                                X             Y             Z
Electronic contribution:     -2.21262      -7.27420       1.90601
Nuclear contribution   :      2.40442       7.90065      -2.07079
                        -----------------------------------------
Total Dipole Moment    :      0.19180       0.62645      -0.16477
                        -----------------------------------------
Magnitude (a.u.)       :      0.67555
Magnitude (Debye)      :      1.71712

                             ****ORCA TERMINATED NORMALLY****
TOTAL RUN TIME: 0 days 0 hours 0 minutes 20 seconds 686 msec
