                         Program Version 4.0.0.2 - RELEASE -
|  1> ! WB97X-D3 6-31G(d) VerySlowConv
|  2> ! KDIIS NOSOSCF
|  3> %base "Scan_34"
|  4>
|  5> %scf
|  6> maxiter 999
|  7> end
|  8>
|  9> * xyz 0 1
| 10> N         -0.751084861506   -1.337863952066    0.654170232770
| 11> H          1.062379520956    1.758468310362   -0.818759501375
| 12> H          0.340774574704    2.250031117182   -0.286298165808
| 13> H         -0.450219234153    2.513584524523    0.305927434414
| 14> **                         ****END OF INPUT****

CARTESIAN COORDINATES (ANGSTROEM)
---------------------------------
  N     -0.751085   -1.337864    0.654170
  H      1.062380    1.758468   -0.818760
  H      0.340775    2.250031   -0.286298
  H     -0.450219    2.513585    0.305927

 Total Charge           Charge          ....    0
 Multiplicity           Mult            ....    1
 Number of Electrons    NEL             ....   10
 Basis Dimension        Dim             ....   20

ORBITAL ENERGIES
----------------

  NO   OCC          E(Eh)            E(eV)
   0   2.0000     -14.176299      -385.7567
   1   2.0000      -0.801262       -21.8035
   2   2.0000      -0.502154       -13.6643
   3   2.0000      -0.049461        -1.3459
   4   2.0000      -0.049227        -1.3395
   5   0.0000      -0.308120        -8.3844
   6   0.0000       0.041241         1.1222
   7   0.0000       0.207319         5.6414
   8   0.0000       0.587204        15.9786
   9   0.0000       0.689302        18.7569

MULLIKEN ATOMIC CHARGES
-----------------------
   0 N :   -0.999629
   1 H :    0.608237
   2 H :   -0.216882
   3 H :    0.608274
Sum of atomic charges:   -0.0000000

LOEWDIN ATOMIC CHARGES
----------------------
   0 N :   -0.999676
   1 H :    0.523166
   2 H :   -0.046649
   3 H :    0.523159

  Mayer bond orders larger than 0.1
B(  1-H ,  2-H ) :   0.4765 B(  1-H ,  3-H ) :   0.1533 B(  2-H ,  3-H ) :   0.4764

Dispersion correction           -0.000320172
FINAL SINGLE POINT ENERGY       -55.814595004860

DIPOLE MOMENT
-------------
                                X             Y             Z
Electronic contribution:     -0.50967      -1.67195       0.43767
Nuclear contribution   :      2.47284       8.12584      -2.12997
                        -----------------------------------------
Total Dipole Moment    :      1.96316       6.45389      -1.69229
                        -----------------------------------------
Magnitude (a.u.)       :      6.95490
Magnitude (Debye)      :     17.67794

                             ****ORCA TERMINATED NORMALLY****
TOTAL RUN TIME: 0 days 0 hours 0 minutes 18 seconds 891 msec
