                         Program Version 4.0.0.2 - RELEASE -
|  1> ! WB97X-D3 6-31G(d) VerySlowConv
|  2> ! KDIIS NOSOSCF
|  3> %base "Scan_35"
|  4>
|  5> %scf
|  6> maxiter 999
|  7> end
|  8>
|  9> * xyz 0 1
| 10> N         -0.773219876162   -1.410600261357    0.673235956825
| 11> H          1.070597458963    1.783396082843   -0.825770359824
| 12> H          0.347568500818    2.272365343716   -0.292156197933
| 13> H         -0.443096083620    2.539058834798    0.299730600931
| 14> **                         ****END OF INPUT****

CARTESIAN COORDINATES (ANGSTROEM)
---------------------------------
  N     -0.773220   -1.410600    0.673236
  H      1.070597    1.783396   -0.825770
  H      0.347569    2.272365   -0.292156
  H     -0.443096    2.539059    0.299731

 Total Charge           Charge          ....    0
 Multiplicity           Mult            ....    1
 Number of Electrons    NEL             ....   10
 Basis Dimension        Dim             ....   20

ORBITAL ENERGIES
----------------

  NO   OCC          E(Eh)            E(eV)
   0   2.0000     -14.172862      -385.6632
   1   2.0000      -0.804299       -21.8861
   2   2.0000      -0.498686       -13.5699
   3   2.0000      -0.046085        -1.2540
   4   2.0000      -0.045892        -1.2488
   5   0.0000      -0.311387        -8.4733
   6   0.0000       0.038277         1.0416
   7   0.0000       0.211015         5.7420
   8   0.0000       0.584279        15.8991
   9   0.0000       0.686465        18.6797

MULLIKEN ATOMIC CHARGES
-----------------------
   0 N :   -0.999737
   1 H :    0.608404
   2 H :   -0.216862
   3 H :    0.608195
Sum of atomic charges:   -0.0000000

LOEWDIN ATOMIC CHARGES
----------------------
   0 N :   -0.999766
   1 H :    0.523341
   2 H :   -0.046697
   3 H :    0.523121

  Mayer bond orders larger than 0.1
B(  1-H ,  2-H ) :   0.4763 B(  1-H ,  3-H ) :   0.1533 B(  2-H ,  3-H ) :   0.4766

Dispersion correction           -0.000284452
FINAL SINGLE POINT ENERGY       -55.811318635925

DIPOLE MOMENT
-------------
                                X             Y             Z
Electronic contribution:     -0.51986      -1.70660       0.44569
Nuclear contribution   :      2.54112       8.35024      -2.18879
                        -----------------------------------------
Total Dipole Moment    :      2.02127       6.64364      -1.74309
                        -----------------------------------------
Magnitude (a.u.)       :      7.15974
Magnitude (Debye)      :     18.19860

                             ****ORCA TERMINATED NORMALLY****
TOTAL RUN TIME: 0 days 0 hours 0 minutes 20 seconds 905 msec
