                         Program Version 4.0.0.2 - RELEASE -
|  1> ! WB97X-D3 6-31G(d) VerySlowConv
|  2> ! KDIIS NOSOSCF
|  3> %base "Scan_36"
|  4>
|  5> %scf
|  6> maxiter 999
|  7> end
|  8>
|  9> * xyz 0 1
| 10> N         -0.795339514523   -1.483287495444    0.692289411990
| 11> H          1.078742328443    1.808285136631   -0.832739958857
| 12> H          0.354399498598    2.294774705018   -0.298014817873
| 13> H         -0.435952312517    2.564447653795    0.293505364740
| 14> **                         ****END OF INPUT****

CARTESIAN COORDINATES (ANGSTROEM)
---------------------------------
  N     -0.795340   -1.483287    0.692289
  H      1.078742    1.808285   -0.832740
  H      0.354399    2.294775   -0.298015
  H     -0.435952    2.564448    0.293505

 Total Charge           Charge          ....    0
 Multiplicity           Mult            ....    1
 Number of Electrons    NEL             ....   10
 Basis Dimension        Dim             ....   20

ORBITAL ENERGIES
----------------

  NO   OCC          E(Eh)            E(eV)
   0   2.0000     -14.169757      -385.5787
   1   2.0000      -0.807241       -21.9661
   2   2.0000      -0.495460       -13.4822
   3   2.0000      -0.042911        -1.1677
   4   2.0000      -0.042742        -1.1631
   5   0.0000      -0.314534        -8.5589
   6   0.0000       0.035411         0.9636
   7   0.0000       0.214432         5.8350
   8   0.0000       0.581379        15.8201
   9   0.0000       0.683676        18.6038

MULLIKEN ATOMIC CHARGES
-----------------------
   0 N :   -0.999841
   1 H :    0.608240
   2 H :   -0.216850
   3 H :    0.608451
Sum of atomic charges:   -0.0000000

LOEWDIN ATOMIC CHARGES
----------------------
   0 N :   -0.999858
   1 H :    0.523222
   2 H :   -0.046737
   3 H :    0.523373

  Mayer bond orders larger than 0.1
B(  1-H ,  2-H ) :   0.4766 B(  1-H ,  3-H ) :   0.1533 B(  2-H ,  3-H ) :   0.4763

Dispersion correction           -0.000251872
FINAL SINGLE POINT ENERGY       -55.808175085043

DIPOLE MOMENT
-------------
                                X             Y             Z
Electronic contribution:     -0.53082      -1.74057       0.45667
Nuclear contribution   :      2.60936       8.57449      -2.24757
                        -----------------------------------------
Total Dipole Moment    :      2.07854       6.83392      -1.79090
                        -----------------------------------------
Magnitude (a.u.)       :      7.36411
Magnitude (Debye)      :     18.71807

                             ****ORCA TERMINATED NORMALLY****
TOTAL RUN TIME: 0 days 0 hours 0 minutes 17 seconds 158 msec
