                         Program Version 4.0.0.2 - RELEASE -
|  1> ! WB97X-D3 6-31G(d) VerySlowConv
|  2> ! KDIIS NOSOSCF
|  3> %base "Scan_37"
|  4>
|  5> %scf
|  6> maxiter 999
|  7> end
|  8>
|  9> * xyz 0 1
| 10> N         -0.817439077719   -1.555903084207    0.711321762353
| 11> H          1.086862708664    1.833125181820   -0.839626089632
| 12> H          0.361190494922    2.317244833806   -0.303968035536
| 13> H         -0.428764125866    2.589753068581    0.287312362816
| 14> **                         ****END OF INPUT****

CARTESIAN COORDINATES (ANGSTROEM)
---------------------------------
  N     -0.817439   -1.555903    0.711322
  H      1.086863    1.833125   -0.839626
  H      0.361190    2.317245   -0.303968
  H     -0.428764    2.589753    0.287312

 Total Charge           Charge          ....    0
 Multiplicity           Mult            ....    1
 Number of Electrons    NEL             ....   10
 Basis Dimension        Dim             ....   20

ORBITAL ENERGIES
----------------

  NO   OCC          E(Eh)            E(eV)
   0   2.0000     -14.166769      -385.4974
   1   2.0000      -0.810027       -22.0419
   2   2.0000      -0.492373       -13.3981
   3   2.0000      -0.039889        -1.0854
   4   2.0000      -0.039750        -1.0817
   5   0.0000      -0.317511        -8.6399
   6   0.0000       0.032686         0.8894
   7   0.0000       0.217713         5.9243
   8   0.0000       0.578564        15.7435
   9   0.0000       0.681004        18.5310

MULLIKEN ATOMIC CHARGES
-----------------------
   0 N :   -0.999901
   1 H :    0.608287
   2 H :   -0.216854
   3 H :    0.608468
Sum of atomic charges:   -0.0000000

LOEWDIN ATOMIC CHARGES
----------------------
   0 N :   -0.999910
   1 H :    0.523283
   2 H :   -0.046786
   3 H :    0.523414

  Mayer bond orders larger than 0.1
B(  1-H ,  2-H ) :   0.4766 B(  1-H ,  3-H ) :   0.1533 B(  2-H ,  3-H ) :   0.4764

Dispersion correction           -0.000222851
FINAL SINGLE POINT ENERGY       -55.805199799317

DIPOLE MOMENT
-------------
                                X             Y             Z
Electronic contribution:     -0.54157      -1.77580       0.46578
Nuclear contribution   :      2.67754       8.79851      -2.30629
                        -----------------------------------------
Total Dipole Moment    :      2.13598       7.02271      -1.84051
                        -----------------------------------------
Magnitude (a.u.)       :      7.56758
Magnitude (Debye)      :     19.23527

                             ****ORCA TERMINATED NORMALLY****
TOTAL RUN TIME: 0 days 0 hours 1 minutes 3 seconds 78 msec
