                         Program Version 4.0.0.2 - RELEASE -
|  1> ! WB97X-D3 6-31G(d) VerySlowConv
|  2> ! KDIIS NOSOSCF
|  3> %base "Scan_38"
|  4>
|  5> %scf
|  6> maxiter 999
|  7> end
|  8>
|  9> * xyz 0 1
| 10> N         -0.839511078071   -1.628450141698    0.730345171025
| 11> H          1.094815595892    1.857908167002   -0.846641571667
| 12> H          0.368241381628    2.339784282512   -0.309618266252
| 13> H         -0.421695899449    2.614977692183    0.280954666894
| 14> **                         ****END OF INPUT****

CARTESIAN COORDINATES (ANGSTROEM)
---------------------------------
  N     -0.839511   -1.628450    0.730345
  H      1.094816    1.857908   -0.846642
  H      0.368241    2.339784   -0.309618
  H     -0.421696    2.614978    0.280955

 Total Charge           Charge          ....    0
 Multiplicity           Mult            ....    1
 Number of Electrons    NEL             ....   10
 Basis Dimension        Dim             ....   20

ORBITAL ENERGIES
----------------

  NO   OCC          E(Eh)            E(eV)
   0   2.0000     -14.163843      -385.4178
   1   2.0000      -0.812587       -22.1116
   2   2.0000      -0.489405       -13.3174
   3   2.0000      -0.037072        -1.0088
   4   2.0000      -0.036942        -1.0052
   5   0.0000      -0.320268        -8.7149
   6   0.0000       0.030140         0.8201
   7   0.0000       0.220943         6.0122
   8   0.0000       0.575941        15.6722
   9   0.0000       0.678532        18.4638

MULLIKEN ATOMIC CHARGES
-----------------------
   0 N :   -0.999769
   1 H :    0.608798
   2 H :   -0.216905
   3 H :    0.607877
Sum of atomic charges:   -0.0000000

LOEWDIN ATOMIC CHARGES
----------------------
   0 N :   -0.999774
   1 H :    0.523762
   2 H :   -0.046898
   3 H :    0.522911

  Mayer bond orders larger than 0.1
B(  1-H ,  2-H ) :   0.4758 B(  1-H ,  3-H ) :   0.1534 B(  2-H ,  3-H ) :   0.4770

Dispersion correction           -0.000197409
FINAL SINGLE POINT ENERGY       -55.802408363962

DIPOLE MOMENT
-------------
                                X             Y             Z
Electronic contribution:     -0.55064      -1.81410       0.47142
Nuclear contribution   :      2.74564       9.02232      -2.36497
                        -----------------------------------------
Total Dipole Moment    :      2.19500       7.20823      -1.89355
                        -----------------------------------------
Magnitude (a.u.)       :      7.76931
Magnitude (Debye)      :     19.74801

                             ****ORCA TERMINATED NORMALLY****
TOTAL RUN TIME: 0 days 0 hours 0 minutes 11 seconds 841 msec
