                         Program Version 4.0.0.2 - RELEASE -
|  1> ! WB97X-D3 6-31G(d) VerySlowConv
|  2> ! KDIIS NOSOSCF
|  3> %base "Scan_39"
|  4>
|  5> %scf
|  6> maxiter 999
|  7> end
|  8>
|  9> * xyz 0 1
| 10> N         -0.861589252842   -1.700933252201    0.749317342243
| 11> H          1.103249621611    1.882648363716   -0.852985528489
| 12> H          0.374339705542    2.362343595636   -0.316562941971
| 13> H         -0.414150074311    2.640161292849    0.275271128217
| 14> **                         ****END OF INPUT****

CARTESIAN COORDINATES (ANGSTROEM)
---------------------------------
  N     -0.861589   -1.700933    0.749317
  H      1.103250    1.882648   -0.852986
  H      0.374340    2.362344   -0.316563
  H     -0.414150    2.640161    0.275271

 Total Charge           Charge          ....    0
 Multiplicity           Mult            ....    1
 Number of Electrons    NEL             ....   10
 Basis Dimension        Dim             ....   20

ORBITAL ENERGIES
----------------

  NO   OCC          E(Eh)            E(eV)
   0   2.0000     -14.161156      -385.3446
   1   2.0000      -0.815192       -22.1825
   2   2.0000      -0.486616       -13.2415
   3   2.0000      -0.034253        -0.9321
   4   2.0000      -0.034165        -0.9297
   5   0.0000      -0.323051        -8.7907
   6   0.0000       0.027561         0.7500
   7   0.0000       0.223780         6.0894
   8   0.0000       0.573265        15.5993
   9   0.0000       0.676021        18.3955

MULLIKEN ATOMIC CHARGES
-----------------------
   0 N :   -0.999963
   1 H :    0.608423
   2 H :   -0.216915
   3 H :    0.608455
Sum of atomic charges:   -0.0000000

LOEWDIN ATOMIC CHARGES
----------------------
   0 N :   -0.999966
   1 H :    0.523440
   2 H :   -0.046914
   3 H :    0.523440

  Mayer bond orders larger than 0.1
B(  1-H ,  2-H ) :   0.4765 B(  1-H ,  3-H ) :   0.1533 B(  2-H ,  3-H ) :   0.4764

Dispersion correction           -0.000175336
FINAL SINGLE POINT ENERGY       -55.799646488094

DIPOLE MOMENT
-------------
                                X             Y             Z
Electronic contribution:     -0.56232      -1.84746       0.48495
Nuclear contribution   :      2.81375       9.24594      -2.42350
                        -----------------------------------------
Total Dipole Moment    :      2.25143       7.39848      -1.93856
                        -----------------------------------------
Magnitude (a.u.)       :      7.97273
Magnitude (Debye)      :     20.26508

                             ****ORCA TERMINATED NORMALLY****
TOTAL RUN TIME: 0 days 0 hours 0 minutes 10 seconds 870 msec
