                         Program Version 4.0.0.2 - RELEASE -
|  1> ! WB97X-D3 6-31G(d) VerySlowConv
|  2> ! KDIIS NOSOSCF
|  3> %base "Scan_4"
|  4>
|  5> %scf
|  6> maxiter 999
|  7> end
|  8>
|  9> * xyz 0 1
| 10> N          0.050326943424    1.295675973413   -0.036182211607
| 11> H          0.912073152161    0.995056860860    0.009654481190
| 12> H         -0.380273646562    1.327458468896   -0.841571797633
| 13> H         -0.380276449022    1.566028696831    0.723139528050
| 14> **                         ****END OF INPUT****

CARTESIAN COORDINATES (ANGSTROEM)
---------------------------------
  N      0.050327    1.295676   -0.036182
  H      0.912073    0.995057    0.009654
  H     -0.380274    1.327458   -0.841572
  H     -0.380276    1.566029    0.723140

 Total Charge           Charge          ....    0
 Multiplicity           Mult            ....    1
 Number of Electrons    NEL             ....   10
 Basis Dimension        Dim             ....   20

ORBITAL ENERGIES
----------------

  NO   OCC          E(Eh)            E(eV)
   0   2.0000     -14.354643      -390.6097
   1   2.0000      -0.973059       -26.4783
   2   2.0000      -0.599200       -16.3051
   3   2.0000      -0.599181       -16.3046
   4   2.0000      -0.319706        -8.6997
   5   0.0000       0.217845         5.9279
   6   0.0000       0.305113         8.3026
   7   0.0000       0.305145         8.3034
   8   0.0000       0.804283        21.8856
   9   0.0000       0.805145        21.9091

MULLIKEN ATOMIC CHARGES
-----------------------
   0 N :   -1.005109
   1 H :    0.335431
   2 H :    0.334856
   3 H :    0.334822
Sum of atomic charges:   -0.0000000

LOEWDIN ATOMIC CHARGES
----------------------
   0 N :   -0.701068
   1 H :    0.233879
   2 H :    0.233571
   3 H :    0.233619

  Mayer bond orders larger than 0.1
B(  0-N ,  1-H ) :   0.8717 B(  0-N ,  2-H ) :   0.8721 B(  0-N ,  3-H ) :   0.8721

Dispersion correction           -0.000004858
FINAL SINGLE POINT ENERGY       -56.494695629924

DIPOLE MOMENT
-------------
                                X             Y             Z
Electronic contribution:      0.00042      -0.00011       0.00034
Nuclear contribution   :      0.00042       0.00117      -0.00018
                        -----------------------------------------
Total Dipole Moment    :      0.00084       0.00106       0.00016
                        -----------------------------------------
Magnitude (a.u.)       :      0.00136
Magnitude (Debye)      :      0.00347

                             ****ORCA TERMINATED NORMALLY****
TOTAL RUN TIME: 0 days 0 hours 0 minutes 3 seconds 129 msec
