                         Program Version 4.0.0.2 - RELEASE -
|  1> ! WB97X-D3 6-31G(d) VerySlowConv
|  2> ! KDIIS NOSOSCF
|  3> %base "Scan_40"
|  4>
|  5> %scf
|  6> maxiter 999
|  7> end
|  8>
|  9> * xyz 0 1
| 10> N         -0.883550019592   -1.773307978838    0.768374646288
| 11> H          1.110331897487    1.907007856128   -0.861863932641
| 12> H          0.383826286678    2.385155475918   -0.319120302875
| 13> H         -0.408758164573    2.665364646791    0.267649589228
| 14> **                         ****END OF INPUT****

CARTESIAN COORDINATES (ANGSTROEM)
---------------------------------
  N     -0.883550   -1.773308    0.768375
  H      1.110332    1.907008   -0.861864
  H      0.383826    2.385155   -0.319120
  H     -0.408758    2.665365    0.267650

 Total Charge           Charge          ....    0
 Multiplicity           Mult            ....    1
 Number of Electrons    NEL             ....   10
 Basis Dimension        Dim             ....   20

ORBITAL ENERGIES
----------------

  NO   OCC          E(Eh)            E(eV)
   0   2.0000     -14.158584      -385.2747
   1   2.0000      -0.817314       -22.2403
   2   2.0000      -0.483952       -13.1690
   3   2.0000      -0.031641        -0.8610
   4   2.0000      -0.031558        -0.8587
   5   0.0000      -0.325670        -8.8619
   6   0.0000       0.024921         0.6781
   7   0.0000       0.226559         6.1650
   8   0.0000       0.570909        15.5352
   9   0.0000       0.673831        18.3359

MULLIKEN ATOMIC CHARGES
-----------------------
   0 N :   -0.999975
   1 H :    0.608197
   2 H :   -0.216688
   3 H :    0.608465
Sum of atomic charges:   -0.0000000

LOEWDIN ATOMIC CHARGES
----------------------
   0 N :   -0.999976
   1 H :    0.523376
   2 H :   -0.046988
   3 H :    0.523589

  Mayer bond orders larger than 0.1
B(  1-H ,  2-H ) :   0.4767 B(  1-H ,  3-H ) :   0.1534 B(  2-H ,  3-H ) :   0.4764

Dispersion correction           -0.000156436
FINAL SINGLE POINT ENERGY       -55.796952719291

DIPOLE MOMENT
-------------
                                X             Y             Z
Electronic contribution:     -0.57774      -1.88359       0.49032
Nuclear contribution   :      2.88150       9.46922      -2.48230
                        -----------------------------------------
Total Dipole Moment    :      2.30376       7.58563      -1.99198
                        -----------------------------------------
Magnitude (a.u.)       :      8.17417
Magnitude (Debye)      :     20.77710

                             ****ORCA TERMINATED NORMALLY****
TOTAL RUN TIME: 0 days 0 hours 0 minutes 8 seconds 214 msec
