                         Program Version 4.0.0.2 - RELEASE -
|  1> ! WB97X-D3 6-31G(d) VerySlowConv
|  2> ! KDIIS NOSOSCF
|  3> %base "Scan_41"
|  4>
|  5> %scf
|  6> maxiter 999
|  7> end
|  8>
|  9> * xyz 0 1
| 10> N         -0.905636385045   -1.845745563767    0.787305235422
| 11> H          1.119320552705    1.931666702722   -0.867486624363
| 12> H          0.388888962967    2.407799303383   -0.327514569978
| 13> H         -0.400723130626    2.690499557662    0.262735958918
| 14> **                         ****END OF INPUT****

CARTESIAN COORDINATES (ANGSTROEM)
---------------------------------
  N     -0.905636   -1.845746    0.787305
  H      1.119321    1.931667   -0.867487
  H      0.388889    2.407799   -0.327515
  H     -0.400723    2.690500    0.262736

 Total Charge           Charge          ....    0
 Multiplicity           Mult            ....    1
 Number of Electrons    NEL             ....   10
 Basis Dimension        Dim             ....   20

ORBITAL ENERGIES
----------------

  NO   OCC          E(Eh)            E(eV)
   0   2.0000     -14.156065      -385.2061
   1   2.0000      -0.819589       -22.3021
   2   2.0000      -0.481385       -13.0991
   3   2.0000      -0.029114        -0.7922
   4   2.0000      -0.029057        -0.7907
   5   0.0000      -0.328171        -8.9300
   6   0.0000       0.022551         0.6137
   7   0.0000       0.229257         6.2384
   8   0.0000       0.568488        15.4693
   9   0.0000       0.671588        18.2748

MULLIKEN ATOMIC CHARGES
-----------------------
   0 N :   -0.999984
   1 H :    0.608249
   2 H :   -0.216720
   3 H :    0.608455
Sum of atomic charges:   -0.0000000

LOEWDIN ATOMIC CHARGES
----------------------
   0 N :   -0.999985
   1 H :    0.523448
   2 H :   -0.047069
   3 H :    0.523606

  Mayer bond orders larger than 0.1
B(  1-H ,  2-H ) :   0.4766 B(  1-H ,  3-H ) :   0.1534 B(  2-H ,  3-H ) :   0.4764

Dispersion correction           -0.000140079
FINAL SINGLE POINT ENERGY       -55.794436905911

DIPOLE MOMENT
-------------
                                X             Y             Z
Electronic contribution:     -0.58570      -1.92009       0.50370
Nuclear contribution   :      2.94964       9.69270      -2.54070
                        -----------------------------------------
Total Dipole Moment    :      2.36394       7.77261      -2.03700
                        -----------------------------------------
Magnitude (a.u.)       :      8.37562
Magnitude (Debye)      :     21.28915

                             ****ORCA TERMINATED NORMALLY****
TOTAL RUN TIME: 0 days 0 hours 1 minutes 3 seconds 976 msec
