                         Program Version 4.0.0.2 - RELEASE -
|  1> ! WB97X-D3 6-31G(d) VerySlowConv
|  2> ! KDIIS NOSOSCF
|  3> %base "Scan_42"
|  4>
|  5> %scf
|  6> maxiter 999
|  7> end
|  8>
|  9> * xyz 0 1
| 10> N         -0.927658566388   -1.918072871526    0.806248105178
| 11> H          1.126869406342    1.956669808313   -0.873443982290
| 12> H          0.395254559039    2.430399400286   -0.334127172268
| 13> H         -0.392615398994    2.715223662927    0.256363049380
| 14> **                         ****END OF INPUT****

CARTESIAN COORDINATES (ANGSTROEM)
---------------------------------
  N     -0.927659   -1.918073    0.806248
  H      1.126869    1.956670   -0.873444
  H      0.395255    2.430399   -0.334127
  H     -0.392615    2.715224    0.256363

 Total Charge           Charge          ....    0
 Multiplicity           Mult            ....    1
 Number of Electrons    NEL             ....   10
 Basis Dimension        Dim             ....   20

ORBITAL ENERGIES
----------------

  NO   OCC          E(Eh)            E(eV)
   0   2.0000     -14.153653      -385.1405
   1   2.0000      -0.822204       -22.3733
   2   2.0000      -0.478925       -13.0322
   3   2.0000      -0.026711        -0.7268
   4   2.0000      -0.026659        -0.7254
   5   0.0000      -0.330480        -8.9928
   6   0.0000       0.020666         0.5624
   7   0.0000       0.231838         6.3086
   8   0.0000       0.565953        15.4004
   9   0.0000       0.669198        18.2098

MULLIKEN ATOMIC CHARGES
-----------------------
   0 N :   -0.999992
   1 H :    0.608474
   2 H :   -0.217088
   3 H :    0.608606
Sum of atomic charges:    0.0000000

LOEWDIN ATOMIC CHARGES
----------------------
   0 N :   -0.999992
   1 H :    0.523502
   2 H :   -0.047102
   3 H :    0.523593

  Mayer bond orders larger than 0.1
B(  1-H ,  2-H ) :   0.4765 B(  1-H ,  3-H ) :   0.1532 B(  2-H ,  3-H ) :   0.4764

Dispersion correction           -0.000125829
FINAL SINGLE POINT ENERGY       -55.792221450233

DIPOLE MOMENT
-------------
                                X             Y             Z
Electronic contribution:     -0.59623      -1.95670       0.51358
Nuclear contribution   :      3.01758       9.91583      -2.59914
                        -----------------------------------------
Total Dipole Moment    :      2.42135       7.95913      -2.08556
                        -----------------------------------------
Magnitude (a.u.)       :      8.57672
Magnitude (Debye)      :     21.80030

                             ****ORCA TERMINATED NORMALLY****
TOTAL RUN TIME: 0 days 0 hours 0 minutes 10 seconds 385 msec
