                         Program Version 4.0.0.2 - RELEASE -
|  1> ! WB97X-D3 6-31G(d) VerySlowConv
|  2> ! KDIIS NOSOSCF
|  3> %base "Scan_43"
|  4>
|  5> %scf
|  6> maxiter 999
|  7> end
|  8>
|  9> * xyz 0 1
| 10> N         -0.949600847852   -1.990311684017    0.825239018559
| 11> H          1.133967600807    1.981079566763   -0.881604144225
| 12> H          0.404087934936    2.453275807516   -0.337606355899
| 13> H         -0.386604687892    2.740176309738    0.249011481564
| 14> **                         ****END OF INPUT****

CARTESIAN COORDINATES (ANGSTROEM)
---------------------------------
  N     -0.949601   -1.990312    0.825239
  H      1.133968    1.981080   -0.881604
  H      0.404088    2.453276   -0.337606
  H     -0.386605    2.740176    0.249011

 Total Charge           Charge          ....    0
 Multiplicity           Mult            ....    1
 Number of Electrons    NEL             ....   10
 Basis Dimension        Dim             ....   20

ORBITAL ENERGIES
----------------

  NO   OCC          E(Eh)            E(eV)
   0   2.0000     -14.151365      -385.0782
   1   2.0000      -0.824203       -22.4277
   2   2.0000      -0.476582       -12.9685
   3   2.0000      -0.024404        -0.6641
   4   2.0000      -0.024367        -0.6631
   5   0.0000      -0.332776        -9.0553
   6   0.0000       0.018413         0.5010
   7   0.0000       0.234270         6.3748
   8   0.0000       0.563778        15.3412
   9   0.0000       0.667177        18.1548

MULLIKEN ATOMIC CHARGES
-----------------------
   0 N :   -0.999993
   1 H :    0.608430
   2 H :   -0.217020
   3 H :    0.608583
Sum of atomic charges:   -0.0000000

LOEWDIN ATOMIC CHARGES
----------------------
   0 N :   -0.999993
   1 H :    0.523527
   2 H :   -0.047172
   3 H :    0.523639

  Mayer bond orders larger than 0.1
B(  1-H ,  2-H ) :   0.4765 B(  1-H ,  3-H ) :   0.1533 B(  2-H ,  3-H ) :   0.4764

Dispersion correction           -0.000113827
FINAL SINGLE POINT ENERGY       -55.789889111956

DIPOLE MOMENT
-------------
                                X             Y             Z
Electronic contribution:     -0.61000      -1.99368       0.52016
Nuclear contribution   :      3.08527      10.13869      -2.65773
                        -----------------------------------------
Total Dipole Moment    :      2.47527       8.14501      -2.13757
                        -----------------------------------------
Magnitude (a.u.)       :      8.77709
Magnitude (Debye)      :     22.30960

                             ****ORCA TERMINATED NORMALLY****
TOTAL RUN TIME: 0 days 0 hours 0 minutes 11 seconds 550 msec
