                         Program Version 4.0.0.2 - RELEASE -
|  1> ! WB97X-D3 6-31G(d) VerySlowConv
|  2> ! KDIIS NOSOSCF
|  3> %base "Scan_44"
|  4>
|  5> %scf
|  6> maxiter 999
|  7> end
|  8>
|  9> * xyz 0 1
| 10> N         -0.971627342841   -2.062575757767    0.844133631693
| 11> H          1.143135902135    2.005416446467   -0.887470685238
| 12> H          0.409310436710    2.476101014956   -0.345907452777
| 13> H         -0.378968996004    2.765278296343    0.244284506322
| 14> **                         ****END OF INPUT****

CARTESIAN COORDINATES (ANGSTROEM)
---------------------------------
  N     -0.971627   -2.062576    0.844134
  H      1.143136    2.005416   -0.887471
  H      0.409310    2.476101   -0.345907
  H     -0.378969    2.765278    0.244285

 Total Charge           Charge          ....    0
 Multiplicity           Mult            ....    1
 Number of Electrons    NEL             ....   10
 Basis Dimension        Dim             ....   20

ORBITAL ENERGIES
----------------

  NO   OCC          E(Eh)            E(eV)
   0   2.0000     -14.149072      -385.0158
   1   2.0000      -0.825957       -22.4754
   2   2.0000      -0.474272       -12.9056
   3   2.0000      -0.022223        -0.6047
   4   2.0000      -0.022171        -0.6033
   5   0.0000      -0.334989        -9.1155
   6   0.0000       0.016136         0.4391
   7   0.0000       0.236765         6.4427
   8   0.0000       0.561778        15.2868
   9   0.0000       0.665333        18.1046

MULLIKEN ATOMIC CHARGES
-----------------------
   0 N :   -0.999996
   1 H :    0.608772
   2 H :   -0.216851
   3 H :    0.608074
Sum of atomic charges:   -0.0000000

LOEWDIN ATOMIC CHARGES
----------------------
   0 N :   -0.999996
   1 H :    0.523952
   2 H :   -0.047256
   3 H :    0.523300

  Mayer bond orders larger than 0.1
B(  1-H ,  2-H ) :   0.4761 B(  1-H ,  3-H ) :   0.1533 B(  2-H ,  3-H ) :   0.4769

Dispersion correction           -0.000103587
FINAL SINGLE POINT ENERGY       -55.787606053349

DIPOLE MOMENT
-------------
                                X             Y             Z
Electronic contribution:     -0.61619      -2.03219       0.53071
Nuclear contribution   :      3.15323      10.36163      -2.71602
                        -----------------------------------------
Total Dipole Moment    :      2.53704       8.32945      -2.18531
                        -----------------------------------------
Magnitude (a.u.)       :      8.97730
Magnitude (Debye)      :     22.81847

                             ****ORCA TERMINATED NORMALLY****
TOTAL RUN TIME: 0 days 0 hours 0 minutes 8 seconds 467 msec
