                         Program Version 4.0.0.2 - RELEASE -
|  1> ! WB97X-D3 6-31G(d) VerySlowConv
|  2> ! KDIIS NOSOSCF
|  3> %base "Scan_45"
|  4>
|  5> %scf
|  6> maxiter 999
|  7> end
|  8>
|  9> * xyz 0 1
| 10> N         -0.993568638802   -2.134756550234    0.863086914667
| 11> H          1.149708158855    2.030272839234   -0.894531861171
| 12> H          0.417456651973    2.498893796379   -0.350254657116
| 13> H         -0.371746172025    2.789809914621    0.236739603620
| 14> **                         ****END OF INPUT****

CARTESIAN COORDINATES (ANGSTROEM)
---------------------------------
  N     -0.993569   -2.134757    0.863087
  H      1.149708    2.030273   -0.894532
  H      0.417457    2.498894   -0.350255
  H     -0.371746    2.789810    0.236740

 Total Charge           Charge          ....    0
 Multiplicity           Mult            ....    1
 Number of Electrons    NEL             ....   10
 Basis Dimension        Dim             ....   20

ORBITAL ENERGIES
----------------

  NO   OCC          E(Eh)            E(eV)
   0   2.0000     -14.147056      -384.9610
   1   2.0000      -0.828340       -22.5403
   2   2.0000      -0.472172       -12.8484
   3   2.0000      -0.020085        -0.5465
   4   2.0000      -0.020055        -0.5457
   5   0.0000      -0.337051        -9.1716
   6   0.0000       0.014462         0.3935
   7   0.0000       0.238868         6.4999
   8   0.0000       0.559480        15.2242
   9   0.0000       0.663159        18.0455

MULLIKEN ATOMIC CHARGES
-----------------------
   0 N :   -0.999996
   1 H :    0.608685
   2 H :   -0.217232
   3 H :    0.608543
Sum of atomic charges:   -0.0000000

LOEWDIN ATOMIC CHARGES
----------------------
   0 N :   -0.999996
   1 H :    0.523721
   2 H :   -0.047293
   3 H :    0.523568

  Mayer bond orders larger than 0.1
B(  1-H ,  2-H ) :   0.4763 B(  1-H ,  3-H ) :   0.1532 B(  2-H ,  3-H ) :   0.4765

Dispersion correction           -0.000094469
FINAL SINGLE POINT ENERGY       -55.785637560384

DIPOLE MOMENT
-------------
                                X             Y             Z
Electronic contribution:     -0.63086      -2.06852       0.53998
Nuclear contribution   :      3.22092      10.58432      -2.77449
                        -----------------------------------------
Total Dipole Moment    :      2.59005       8.51580      -2.23452
                        -----------------------------------------
Magnitude (a.u.)       :      9.17716
Magnitude (Debye)      :     23.32648

                             ****ORCA TERMINATED NORMALLY****
TOTAL RUN TIME: 0 days 0 hours 0 minutes 9 seconds 208 msec
