                         Program Version 4.0.0.2 - RELEASE -
|  1> ! WB97X-D3 6-31G(d) VerySlowConv
|  2> ! KDIIS NOSOSCF
|  3> %base "Scan_6"
|  4>
|  5> %scf
|  6> maxiter 999
|  7> end
|  8>
|  9> * xyz 0 1
| 10> N         -0.040984812203    1.040353985027    0.002746357064
| 11> H          0.970677614522    1.070319508941   -0.001820650046
| 12> H         -0.363919952089    1.413588343914   -0.880876109712
| 13> H         -0.363922850230    1.659958162119    0.734990402694
| 14> **                         ****END OF INPUT****

CARTESIAN COORDINATES (ANGSTROEM)
---------------------------------
  N     -0.040985    1.040354    0.002746
  H      0.970678    1.070320   -0.001821
  H     -0.363920    1.413588   -0.880876
  H     -0.363923    1.659958    0.734990

 Total Charge           Charge          ....    0
 Multiplicity           Mult            ....    1
 Number of Electrons    NEL             ....   10
 Basis Dimension        Dim             ....   20

ORBITAL ENERGIES
----------------

  NO   OCC          E(Eh)            E(eV)
   0   2.0000     -14.394952      -391.7066
   1   2.0000      -0.957285       -26.0490
   2   2.0000      -0.553862       -15.0714
   3   2.0000      -0.553689       -15.0666
   4   2.0000      -0.345136        -9.3916
   5   0.0000       0.181464         4.9379
   6   0.0000       0.271017         7.3747
   7   0.0000       0.271242         7.3809
   8   0.0000       0.788379        21.4529
   9   0.0000       0.788709        21.4619

MULLIKEN ATOMIC CHARGES
-----------------------
   0 N :   -0.949562
   1 H :    0.316563
   2 H :    0.316350
   3 H :    0.316649
Sum of atomic charges:    0.0000000

LOEWDIN ATOMIC CHARGES
----------------------
   0 N :   -0.688653
   1 H :    0.229621
   2 H :    0.229333
   3 H :    0.229699

  Mayer bond orders larger than 0.1
B(  0-N ,  1-H ) :   0.8730 B(  0-N ,  2-H ) :   0.8728 B(  0-N ,  3-H ) :   0.8729

Dispersion correction           -0.000006333
FINAL SINGLE POINT ENERGY       -56.528736530016

DIPOLE MOMENT
-------------
                                X             Y             Z
Electronic contribution:     -0.03843      -0.10932       0.01778
Nuclear contribution   :      0.28212       0.78886      -0.12028
                        -----------------------------------------
Total Dipole Moment    :      0.24369       0.67954      -0.10249
                        -----------------------------------------
Magnitude (a.u.)       :      0.72915
Magnitude (Debye)      :      1.85335

                             ****ORCA TERMINATED NORMALLY****
TOTAL RUN TIME: 0 days 0 hours 0 minutes 3 seconds 556 msec
