                         Program Version 4.0.0.2 - RELEASE -
|  1> ! WB97X-D3 6-31G(d) VerySlowConv
|  2> ! KDIIS NOSOSCF
|  3> %base "Scan_7"
|  4>
|  5> %scf
|  6> maxiter 999
|  7> end
|  8>
|  9> * xyz 0 1
| 10> N         -0.057161202049    0.995122260879    0.009642770736
| 11> H          1.013930356837    1.072164143112   -0.002101821122
| 12> H         -0.377458067592    1.430040027129   -0.918563547671
| 13> H         -0.377461087196    1.686893568880    0.766062598057
| 14> **                         ****END OF INPUT****

CARTESIAN COORDINATES (ANGSTROEM)
---------------------------------
  N     -0.057161    0.995122    0.009643
  H      1.013930    1.072164   -0.002102
  H     -0.377458    1.430040   -0.918564
  H     -0.377461    1.686894    0.766063

 Total Charge           Charge          ....    0
 Multiplicity           Mult            ....    1
 Number of Electrons    NEL             ....   10
 Basis Dimension        Dim             ....   20

ORBITAL ENERGIES
----------------

  NO   OCC          E(Eh)            E(eV)
   0   2.0000     -14.417561      -392.3218
   1   2.0000      -0.938964       -25.5505
   2   2.0000      -0.533964       -14.5299
   3   2.0000      -0.533786       -14.5250
   4   2.0000      -0.352066        -9.5802
   5   0.0000       0.161783         4.4024
   6   0.0000       0.247460         6.7337
   7   0.0000       0.247611         6.7378
   8   0.0000       0.793959        21.6047
   9   0.0000       0.793982        21.6053

MULLIKEN ATOMIC CHARGES
-----------------------
   0 N :   -0.912165
   1 H :    0.303845
   2 H :    0.304224
   3 H :    0.304096
Sum of atomic charges:    0.0000000

LOEWDIN ATOMIC CHARGES
----------------------
   0 N :   -0.678732
   1 H :    0.226205
   2 H :    0.226216
   3 H :    0.226311

  Mayer bond orders larger than 0.1
B(  0-N ,  1-H ) :   0.8752 B(  0-N ,  2-H ) :   0.8747 B(  0-N ,  3-H ) :   0.8750

Dispersion correction           -0.000008870
FINAL SINGLE POINT ENERGY       -56.521917906486

DIPOLE MOMENT
-------------
                                X             Y             Z
Electronic contribution:     -0.07079      -0.19928       0.03100
Nuclear contribution   :      0.33203       0.92840      -0.14155
                        -----------------------------------------
Total Dipole Moment    :      0.26124       0.72912      -0.11056
                        -----------------------------------------
Magnitude (a.u.)       :      0.78236
Magnitude (Debye)      :      1.98859

                             ****ORCA TERMINATED NORMALLY****
TOTAL RUN TIME: 0 days 0 hours 0 minutes 3 seconds 769 msec
