                         Program Version 4.0.0.2 - RELEASE -
|  1> ! WB97X-D3 6-31G(d) VerySlowConv
|  2> ! KDIIS NOSOSCF
|  3> %base "Scan_8"
|  4>
|  5> %scf
|  6> maxiter 999
|  7> end
|  8>
|  9> * xyz 0 1
| 10> N         -0.074437358243    0.946815420388    0.017008043837
| 11> H          1.066681304969    1.071842238040   -0.002052646529
| 12> H         -0.395195386709    1.447848250720   -0.964942672873
| 13> H         -0.395198560018    1.717714090851    0.805027275564
| 14> **                         ****END OF INPUT****

CARTESIAN COORDINATES (ANGSTROEM)
---------------------------------
  N     -0.074437    0.946815    0.017008
  H      1.066681    1.071842   -0.002053
  H     -0.395195    1.447848   -0.964943
  H     -0.395199    1.717714    0.805027

 Total Charge           Charge          ....    0
 Multiplicity           Mult            ....    1
 Number of Electrons    NEL             ....   10
 Basis Dimension        Dim             ....   20

ORBITAL ENERGIES
----------------

  NO   OCC          E(Eh)            E(eV)
   0   2.0000     -14.443512      -393.0279
   1   2.0000      -0.918787       -25.0015
   2   2.0000      -0.513392       -13.9701
   3   2.0000      -0.513229       -13.9657
   4   2.0000      -0.360602        -9.8125
   5   0.0000       0.138167         3.7597
   6   0.0000       0.217450         5.9171
   7   0.0000       0.217531         5.9193
   8   0.0000       0.803907        21.8754
   9   0.0000       0.804265        21.8852

MULLIKEN ATOMIC CHARGES
-----------------------
   0 N :   -0.851187
   1 H :    0.283200
   2 H :    0.284237
   3 H :    0.283750
Sum of atomic charges:   -0.0000000

LOEWDIN ATOMIC CHARGES
----------------------
   0 N :   -0.656664
   1 H :    0.218662
   2 H :    0.219083
   3 H :    0.218918

  Mayer bond orders larger than 0.1
B(  0-N ,  1-H ) :   0.8845 B(  0-N ,  2-H ) :   0.8838 B(  0-N ,  3-H ) :   0.8842

Dispersion correction           -0.000013271
FINAL SINGLE POINT ENERGY       -56.498283298929

DIPOLE MOMENT
-------------
                                X             Y             Z
Electronic contribution:     -0.11561      -0.32323       0.04928
Nuclear contribution   :      0.38533       1.07743      -0.16427
                        -----------------------------------------
Total Dipole Moment    :      0.26971       0.75420      -0.11500
                        -----------------------------------------
Magnitude (a.u.)       :      0.80919
Magnitude (Debye)      :      2.05681

                             ****ORCA TERMINATED NORMALLY****
TOTAL RUN TIME: 0 days 0 hours 0 minutes 3 seconds 652 msec
