                         Program Version 4.0.0.2 - RELEASE -
|  1> ! WB97X-D3 6-31G(d) VerySlowConv
|  2> ! KDIIS NOSOSCF
|  3> %base "Scan_9"
|  4>
|  5> %scf
|  6> maxiter 999
|  7> end
|  8>
|  9> * xyz 0 1
| 10> N         -0.092943446529    0.895069497678    0.024897667723
| 11> H          1.129112936703    1.069426503025   -0.001684208669
| 12> H         -0.417158067452    1.467139386271   -1.020161990332
| 13> H         -0.417161422723    1.752584613026    0.851988531278
| 14> **                         ****END OF INPUT****

CARTESIAN COORDINATES (ANGSTROEM)
---------------------------------
  N     -0.092943    0.895069    0.024898
  H      1.129113    1.069427   -0.001684
  H     -0.417158    1.467139   -1.020162
  H     -0.417161    1.752585    0.851989

 Total Charge           Charge          ....    0
 Multiplicity           Mult            ....    1
 Number of Electrons    NEL             ....   10
 Basis Dimension        Dim             ....   20

ORBITAL ENERGIES
----------------

  NO   OCC          E(Eh)            E(eV)
   0   2.0000     -14.471611      -393.7926
   1   2.0000      -0.898515       -24.4498
   2   2.0000      -0.492914       -13.4129
   3   2.0000      -0.492796       -13.4097
   4   2.0000      -0.370627       -10.0853
   5   0.0000       0.110987         3.0201
   6   0.0000       0.181602         4.9417
   7   0.0000       0.181714         4.9447
   8   0.0000       0.804001        21.8780
   9   0.0000       0.819089        22.2885

MULLIKEN ATOMIC CHARGES
-----------------------
   0 N :   -0.764911
   1 H :    0.254342
   2 H :    0.255706
   3 H :    0.254863
Sum of atomic charges:   -0.0000000

LOEWDIN ATOMIC CHARGES
----------------------
   0 N :   -0.619039
   1 H :    0.206049
   2 H :    0.206717
   3 H :    0.206273

  Mayer bond orders larger than 0.1
B(  0-N ,  1-H ) :   0.9018 B(  0-N ,  2-H ) :   0.9010 B(  0-N ,  3-H ) :   0.9015

Dispersion correction           -0.000021432
FINAL SINGLE POINT ENERGY       -56.458218682468

DIPOLE MOMENT
-------------
                                X             Y             Z
Electronic contribution:     -0.17377      -0.48493       0.07316
Nuclear contribution   :      0.44242       1.23707      -0.18861
                        -----------------------------------------
Total Dipole Moment    :      0.26864       0.75214      -0.11546
                        -----------------------------------------
Magnitude (a.u.)       :      0.80698
Magnitude (Debye)      :      2.05119

                             ****ORCA TERMINATED NORMALLY****
TOTAL RUN TIME: 0 days 0 hours 0 minutes 3 seconds 714 msec
