                         Program Version 4.0.0.2 - RELEASE -
|  1> ! WB97X-D3 6-31G(d) VerySlowConv
|  2> ! KDIIS NOSOSCF
|  3> %base "Scan_1"
|  4>
|  5> %scf
|  6> maxiter 999
|  7> end
|  8>
|  9> * xyz 0 1
| 10> C         -1.564493860276    1.272575119741   -0.000201064644
| 11> C         -0.473264788313    1.278342473669   -0.000239139275
| 12> H         -2.198933131975    0.589118849512   -0.577877179175
| 13> H         -2.206137526788    1.948729246219    0.578091742699
| 14> H          0.168381850685    0.601627040190   -0.577871674561
| 15> H          0.161177456667    1.961237270668    0.578097314956
| 16> **                         ****END OF INPUT****

CARTESIAN COORDINATES (ANGSTROEM)
---------------------------------
  C     -1.564494    1.272575   -0.000201
  C     -0.473265    1.278342   -0.000239
  H     -2.198933    0.589119   -0.577877
  H     -2.206138    1.948729    0.578092
  H      0.168382    0.601627   -0.577872
  H      0.161177    1.961237    0.578097

 Total Charge           Charge          ....    0
 Multiplicity           Mult            ....    1
 Number of Electrons    NEL             ....   16
 Basis Dimension        Dim             ....   36

ORBITAL ENERGIES
----------------

  NO   OCC          E(Eh)            E(eV)
   0   2.0000     -10.247841      -278.8579
   1   2.0000     -10.241728      -278.6916
   2   2.0000      -0.922456       -25.1013
   3   2.0000      -0.664654       -18.0861
   4   2.0000      -0.584999       -15.9186
   5   2.0000      -0.546225       -14.8635
   6   2.0000      -0.412105       -11.2140
   7   2.0000      -0.397729       -10.8228
   8   0.0000       0.168450         4.5838
   9   0.0000       0.205499         5.5919
  10   0.0000       0.223926         6.0933
  11   0.0000       0.262235         7.1358
  12   0.0000       0.371325        10.1043

MULLIKEN ATOMIC CHARGES
-----------------------
   0 C :   -0.305896
   1 C :   -0.305896
   2 H :    0.152932
   3 H :    0.152964
   4 H :    0.152962
   5 H :    0.152934
Sum of atomic charges:   -0.0000000

LOEWDIN ATOMIC CHARGES
----------------------
   0 C :   -0.257313
   1 C :   -0.257313
   2 H :    0.128654
   3 H :    0.128659
   4 H :    0.128660
   5 H :    0.128653

  Mayer bond orders larger than 0.1
B(  0-C ,  1-C ) :   2.0975 B(  0-C ,  2-H ) :   0.9355 B(  0-C ,  3-H ) :   0.9355
B(  1-C ,  4-H ) :   0.9355 B(  1-C ,  5-H ) :   0.9355

Dispersion correction           -0.000222578
FINAL SINGLE POINT ENERGY       -78.451322171682

DIPOLE MOMENT
-------------
                                X             Y             Z
Electronic contribution:     -0.00000       0.00062      -0.00074
Nuclear contribution   :      0.00000      -0.00090       0.00106
                        -----------------------------------------
Total Dipole Moment    :      0.00000      -0.00028       0.00032
                        -----------------------------------------
Magnitude (a.u.)       :      0.00042
Magnitude (Debye)      :      0.00108

                             ****ORCA TERMINATED NORMALLY****
TOTAL RUN TIME: 0 days 0 hours 0 minutes 5 seconds 493 msec
