                         Program Version 4.0.0.2 - RELEASE -
|  1> ! WB97X-D3 6-31G(d) VerySlowConv
|  2> ! KDIIS NOSOSCF
|  3> %base "Scan_10"
|  4>
|  5> %scf
|  6> maxiter 999
|  7> end
|  8>
|  9> * xyz 0 1
| 10> C         -1.701490817282    1.271723231548   -0.000070126652
| 11> C         -0.336267027174    1.278906539338   -0.000031545405
| 12> H         -2.256637885433    0.568829376614   -0.594989176278
| 13> H         -2.264036008414    1.968527240158    0.595063317257
| 14> H          0.226279927488    0.581973470038   -0.595011646547
| 15> H          0.218881810815    1.981670142304    0.595039177624
| 16> **                         ****END OF INPUT****

CARTESIAN COORDINATES (ANGSTROEM)
---------------------------------
  C     -1.701491    1.271723   -0.000070
  C     -0.336267    1.278907   -0.000032
  H     -2.256638    0.568829   -0.594989
  H     -2.264036    1.968527    0.595063
  H      0.226280    0.581973   -0.595012
  H      0.218882    1.981670    0.595039

 Total Charge           Charge          ....    0
 Multiplicity           Mult            ....    1
 Number of Electrons    NEL             ....   16
 Basis Dimension        Dim             ....   36

ORBITAL ENERGIES
----------------

  NO   OCC          E(Eh)            E(eV)
   0   2.0000     -10.280945      -279.7587
   1   2.0000     -10.280330      -279.7420
   2   2.0000      -0.864984       -23.5374
   3   2.0000      -0.690076       -18.7779
   4   2.0000      -0.566111       -15.4047
   5   2.0000      -0.507291       -13.8041
   6   2.0000      -0.453166       -12.3313
   7   2.0000      -0.353018        -9.6061
   8   0.0000       0.098330         2.6757
   9   0.0000       0.218425         5.9437
  10   0.0000       0.241333         6.5670
  11   0.0000       0.256404         6.9771
  12   0.0000       0.343548         9.3484

MULLIKEN ATOMIC CHARGES
-----------------------
   0 C :   -0.341685
   1 C :   -0.341683
   2 H :    0.170821
   3 H :    0.170864
   4 H :    0.170863
   5 H :    0.170821
Sum of atomic charges:   -0.0000000

LOEWDIN ATOMIC CHARGES
----------------------
   0 C :   -0.274099
   1 C :   -0.274098
   2 H :    0.137057
   3 H :    0.137042
   4 H :    0.137042
   5 H :    0.137056

  Mayer bond orders larger than 0.1
B(  0-C ,  1-C ) :   2.0155 B(  0-C ,  2-H ) :   0.9461 B(  0-C ,  3-H ) :   0.9461
B(  1-C ,  4-H ) :   0.9461 B(  1-C ,  5-H ) :   0.9461

Dispersion correction           -0.000265037
FINAL SINGLE POINT ENERGY       -78.555373241328

DIPOLE MOMENT
-------------
                                X             Y             Z
Electronic contribution:     -0.00000       0.00013      -0.00016
Nuclear contribution   :      0.00000      -0.00021       0.00025
                        -----------------------------------------
Total Dipole Moment    :      0.00000      -0.00007       0.00008
                        -----------------------------------------
Magnitude (a.u.)       :      0.00011
Magnitude (Debye)      :      0.00028

                             ****ORCA TERMINATED NORMALLY****
TOTAL RUN TIME: 0 days 0 hours 0 minutes 3 seconds 960 msec
