                         Program Version 4.0.0.2 - RELEASE -
|  1> ! WB97X-D3 6-31G(d) VerySlowConv
|  2> ! KDIIS NOSOSCF
|  3> %base "Scan_11"
|  4>
|  5> %scf
|  6> maxiter 999
|  7> end
|  8>
|  9> * xyz 0 1
| 10> C         -1.729552349572    1.271588281993   -0.000085781137
| 11> C         -0.308203534384    1.278973691599    0.000063862034
| 12> H         -2.271426891495    0.564893707430   -0.598276815579
| 13> H         -2.278865915917    1.972314444816    0.598341494977
| 14> H          0.241108860945    0.578219018427   -0.598331005679
| 15> H          0.233669830423    1.985640855736    0.598288245385
| 16> **                         ****END OF INPUT****

CARTESIAN COORDINATES (ANGSTROEM)
---------------------------------
  C     -1.729552    1.271588   -0.000086
  C     -0.308204    1.278974    0.000064
  H     -2.271427    0.564894   -0.598277
  H     -2.278866    1.972314    0.598341
  H      0.241109    0.578219   -0.598331
  H      0.233670    1.985641    0.598288

 Total Charge           Charge          ....    0
 Multiplicity           Mult            ....    1
 Number of Electrons    NEL             ....   16
 Basis Dimension        Dim             ....   36

ORBITAL ENERGIES
----------------

  NO   OCC          E(Eh)            E(eV)
   0   2.0000     -10.287929      -279.9488
   1   2.0000     -10.287534      -279.9380
   2   2.0000      -0.854359       -23.2483
   3   2.0000      -0.694526       -18.8990
   4   2.0000      -0.563759       -15.3407
   5   2.0000      -0.497794       -13.5456
   6   2.0000      -0.462263       -12.5788
   7   2.0000      -0.343740        -9.3536
   8   0.0000       0.086449         2.3524
   9   0.0000       0.217135         5.9085
  10   0.0000       0.246496         6.7075
  11   0.0000       0.253493         6.8979
  12   0.0000       0.339199         9.2301

MULLIKEN ATOMIC CHARGES
-----------------------
   0 C :   -0.347999
   1 C :   -0.348000
   2 H :    0.173978
   3 H :    0.174022
   4 H :    0.174022
   5 H :    0.173978
Sum of atomic charges:   -0.0000000

LOEWDIN ATOMIC CHARGES
----------------------
   0 C :   -0.277037
   1 C :   -0.277037
   2 H :    0.138527
   3 H :    0.138509
   4 H :    0.138510
   5 H :    0.138527

  Mayer bond orders larger than 0.1
B(  0-C ,  1-C ) :   2.0087 B(  0-C ,  2-H ) :   0.9451 B(  0-C ,  3-H ) :   0.9451
B(  1-C ,  4-H ) :   0.9451 B(  1-C ,  5-H ) :   0.9451

Dispersion correction           -0.000276679
FINAL SINGLE POINT ENERGY       -78.548013539387

DIPOLE MOMENT
-------------
                                X             Y             Z
Electronic contribution:      0.00000       0.00003      -0.00003
Nuclear contribution   :     -0.00000      -0.00004       0.00005
                        -----------------------------------------
Total Dipole Moment    :     -0.00000      -0.00002       0.00002
                        -----------------------------------------
Magnitude (a.u.)       :      0.00002
Magnitude (Debye)      :      0.00006

                             ****ORCA TERMINATED NORMALLY****
TOTAL RUN TIME: 0 days 0 hours 0 minutes 3 seconds 864 msec
