                         Program Version 4.0.0.2 - RELEASE -
|  1> ! WB97X-D3 6-31G(d) VerySlowConv
|  2> ! KDIIS NOSOSCF
|  3> %base "Scan_12"
|  4>
|  5> %scf
|  6> maxiter 999
|  7> end
|  8>
|  9> * xyz 0 1
| 10> C         -1.762542140467    1.271494688667   -0.000180788814
| 11> C         -0.275215375395    1.279048833666    0.000180561233
| 12> H         -2.289654185169    0.560374716087   -0.601995719943
| 13> H         -2.297139744467    1.976599822369    0.602108250219
| 14> H          0.259383500863    0.573943727538   -0.602107872117
| 15> H          0.251897944635    1.990168211673    0.601995569421
| 16> **                         ****END OF INPUT****

CARTESIAN COORDINATES (ANGSTROEM)
---------------------------------
  C     -1.762542    1.271495   -0.000181
  C     -0.275215    1.279049    0.000181
  H     -2.289654    0.560375   -0.601996
  H     -2.297140    1.976600    0.602108
  H      0.259384    0.573944   -0.602108
  H      0.251898    1.990168    0.601996

 Total Charge           Charge          ....    0
 Multiplicity           Mult            ....    1
 Number of Electrons    NEL             ....   16
 Basis Dimension        Dim             ....   36

ORBITAL ENERGIES
----------------

  NO   OCC          E(Eh)            E(eV)
   0   2.0000     -10.295655      -280.1590
   1   2.0000     -10.295417      -280.1525
   2   2.0000      -0.842879       -22.9359
   3   2.0000      -0.699481       -19.0338
   4   2.0000      -0.561495       -15.2791
   5   2.0000      -0.486235       -13.2311
   6   2.0000      -0.472080       -12.8460
   7   2.0000      -0.333769        -9.0823
   8   0.0000       0.073513         2.0004
   9   0.0000       0.215682         5.8690
  10   0.0000       0.249024         6.7763
  11   0.0000       0.251937         6.8555
  12   0.0000       0.334591         9.1047

MULLIKEN ATOMIC CHARGES
-----------------------
   0 C :   -0.355099
   1 C :   -0.355103
   2 H :    0.177528
   3 H :    0.177573
   4 H :    0.177573
   5 H :    0.177528
Sum of atomic charges:   -0.0000000

LOEWDIN ATOMIC CHARGES
----------------------
   0 C :   -0.280369
   1 C :   -0.280371
   2 H :    0.140196
   3 H :    0.140174
   4 H :    0.140174
   5 H :    0.140196

  Mayer bond orders larger than 0.1
B(  0-C ,  1-C ) :   2.0026 B(  0-C ,  2-H ) :   0.9432 B(  0-C ,  3-H ) :   0.9431
B(  1-C ,  4-H ) :   0.9431 B(  1-C ,  5-H ) :   0.9432

Dispersion correction           -0.000291489
FINAL SINGLE POINT ENERGY       -78.533811531846

DIPOLE MOMENT
-------------
                                X             Y             Z
Electronic contribution:     -0.00001       0.00000      -0.00000
Nuclear contribution   :      0.00000      -0.00000       0.00000
                        -----------------------------------------
Total Dipole Moment    :     -0.00000      -0.00000       0.00000
                        -----------------------------------------
Magnitude (a.u.)       :      0.00000
Magnitude (Debye)      :      0.00001

                             ****ORCA TERMINATED NORMALLY****
TOTAL RUN TIME: 0 days 0 hours 0 minutes 3 seconds 915 msec
