                         Program Version 4.0.0.2 - RELEASE -
|  1> ! WB97X-D3 6-31G(d) VerySlowConv
|  2> ! KDIIS NOSOSCF
|  3> %base "Scan_13"
|  4>
|  5> %scf
|  6> maxiter 999
|  7> end
|  8>
|  9> * xyz 0 1
| 10> C         -1.801355921950    1.271165463797   -0.000034859548
| 11> C         -0.236401082345    1.279377831099    0.000034902703
| 12> H         -2.311594840621    0.555174029634   -0.606395199223
| 13> H         -2.319134548516    1.981643757616    0.606418960865
| 14> H          0.281378049734    0.568899814743   -0.606418795734
| 15> H          0.273838343698    1.995369103110    0.606394990937
| 16> **                         ****END OF INPUT****

CARTESIAN COORDINATES (ANGSTROEM)
---------------------------------
  C     -1.801356    1.271165   -0.000035
  C     -0.236401    1.279378    0.000035
  H     -2.311595    0.555174   -0.606395
  H     -2.319135    1.981644    0.606419
  H      0.281378    0.568900   -0.606419
  H      0.273838    1.995369    0.606395

 Total Charge           Charge          ....    0
 Multiplicity           Mult            ....    1
 Number of Electrons    NEL             ....   16
 Basis Dimension        Dim             ....   36

ORBITAL ENERGIES
----------------

  NO   OCC          E(Eh)            E(eV)
   0   2.0000     -10.303892      -280.3832
   1   2.0000     -10.303757      -280.3795
   2   2.0000      -0.830880       -22.6094
   3   2.0000      -0.704918       -19.1818
   4   2.0000      -0.559530       -15.2256
   5   2.0000      -0.482581       -13.1317
   6   2.0000      -0.472184       -12.8488
   7   2.0000      -0.323174        -8.7940
   8   0.0000       0.059642         1.6230
   9   0.0000       0.214033         5.8241
  10   0.0000       0.241672         6.5762
  11   0.0000       0.257674         7.0117
  12   0.0000       0.329829         8.9751

MULLIKEN ATOMIC CHARGES
-----------------------
   0 C :   -0.363003
   1 C :   -0.363001
   2 H :    0.181478
   3 H :    0.181524
   4 H :    0.181524
   5 H :    0.181478
Sum of atomic charges:   -0.0000000

LOEWDIN ATOMIC CHARGES
----------------------
   0 C :   -0.284161
   1 C :   -0.284159
   2 H :    0.142091
   3 H :    0.142069
   4 H :    0.142069
   5 H :    0.142091

  Mayer bond orders larger than 0.1
B(  0-C ,  1-C ) :   1.9972 B(  0-C ,  2-H ) :   0.9403 B(  0-C ,  3-H ) :   0.9403
B(  1-C ,  4-H ) :   0.9403 B(  1-C ,  5-H ) :   0.9403

Dispersion correction           -0.000310217
FINAL SINGLE POINT ENERGY       -78.512013365816

DIPOLE MOMENT
-------------
                                X             Y             Z
Electronic contribution:      0.00000      -0.00000       0.00000
Nuclear contribution   :      0.00000       0.00000      -0.00000
                        -----------------------------------------
Total Dipole Moment    :      0.00000       0.00000      -0.00000
                        -----------------------------------------
Magnitude (a.u.)       :      0.00000
Magnitude (Debye)      :      0.00001

                             ****ORCA TERMINATED NORMALLY****
TOTAL RUN TIME: 0 days 0 hours 0 minutes 3 seconds 926 msec
