                         Program Version 4.0.0.2 - RELEASE -
|  1> ! WB97X-D3 6-31G(d) VerySlowConv
|  2> ! KDIIS NOSOSCF
|  3> %base "Scan_14"
|  4>
|  5> %scf
|  6> maxiter 999
|  7> end
|  8>
|  9> * xyz 0 1
| 10> C         -1.846641210240    1.270892359743    0.000004830173
| 11> C         -0.191115225061    1.279650970258   -0.000004825339
| 12> H         -2.338354949992    0.549333550101   -0.611261758087
| 13> H         -2.345955012508    1.987222011401    0.611260846114
| 14> H          0.308198231231    0.563321120392   -0.611261021356
| 15> H          0.300598166570    2.001209988105    0.611261928495
| 16> **                         ****END OF INPUT****

CARTESIAN COORDINATES (ANGSTROEM)
---------------------------------
  C     -1.846641    1.270892    0.000005
  C     -0.191115    1.279651   -0.000005
  H     -2.338355    0.549334   -0.611262
  H     -2.345955    1.987222    0.611261
  H      0.308198    0.563321   -0.611261
  H      0.300598    2.001210    0.611262

 Total Charge           Charge          ....    0
 Multiplicity           Mult            ....    1
 Number of Electrons    NEL             ....   16
 Basis Dimension        Dim             ....   36

ORBITAL ENERGIES
----------------

  NO   OCC          E(Eh)            E(eV)
   0   2.0000     -10.312301      -280.6120
   1   2.0000     -10.312224      -280.6099
   2   2.0000      -0.818907       -22.2836
   3   2.0000      -0.710807       -19.3420
   4   2.0000      -0.557909       -15.1815
   5   2.0000      -0.493430       -13.4269
   6   2.0000      -0.455696       -12.4001
   7   2.0000      -0.312162        -8.4944
   8   0.0000       0.045127         1.2280
   9   0.0000       0.212270         5.7762
  10   0.0000       0.228050         6.2056
  11   0.0000       0.263540         7.1713
  12   0.0000       0.305551         8.3145

MULLIKEN ATOMIC CHARGES
-----------------------
   0 C :   -0.371489
   1 C :   -0.371501
   2 H :    0.185724
   3 H :    0.185770
   4 H :    0.185772
   5 H :    0.185725
Sum of atomic charges:   -0.0000000

LOEWDIN ATOMIC CHARGES
----------------------
   0 C :   -0.288343
   1 C :   -0.288354
   2 H :    0.144185
   3 H :    0.144163
   4 H :    0.144164
   5 H :    0.144186

  Mayer bond orders larger than 0.1
B(  0-C ,  1-C ) :   1.9923 B(  0-C ,  2-H ) :   0.9366 B(  0-C ,  3-H ) :   0.9366
B(  1-C ,  4-H ) :   0.9366 B(  1-C ,  5-H ) :   0.9366

Dispersion correction           -0.000334117
FINAL SINGLE POINT ENERGY       -78.482557370950

DIPOLE MOMENT
-------------
                                X             Y             Z
Electronic contribution:     -0.00001      -0.00000       0.00000
Nuclear contribution   :     -0.00000       0.00000      -0.00000
                        -----------------------------------------
Total Dipole Moment    :     -0.00001      -0.00000      -0.00000
                        -----------------------------------------
Magnitude (a.u.)       :      0.00001
Magnitude (Debye)      :      0.00003

                             ****ORCA TERMINATED NORMALLY****
TOTAL RUN TIME: 0 days 0 hours 0 minutes 3 seconds 892 msec
