                         Program Version 4.0.0.2 - RELEASE -
|  1> ! WB97X-D3 6-31G(d) VerySlowConv
|  2> ! KDIIS NOSOSCF
|  3> %base "Scan_15"
|  4>
|  5> %scf
|  6> maxiter 999
|  7> end
|  8>
|  9> * xyz 0 1
| 10> C         -1.898142442341    1.270258391391    0.000400357589
| 11> C         -0.139612995923    1.280285766978   -0.000401320362
| 12> H         -2.370511198723    0.543375974666   -0.616401974723
| 13> H         -2.378170206873    1.993063485987    0.616152411445
| 14> H          0.340412927846    0.557478872633   -0.616152407731
| 15> H          0.332753916013    2.007167508345    0.616402933782
| 16> **                         ****END OF INPUT****

CARTESIAN COORDINATES (ANGSTROEM)
---------------------------------
  C     -1.898142    1.270258    0.000400
  C     -0.139613    1.280286   -0.000401
  H     -2.370511    0.543376   -0.616402
  H     -2.378170    1.993063    0.616152
  H      0.340413    0.557479   -0.616152
  H      0.332754    2.007168    0.616403

 Total Charge           Charge          ....    0
 Multiplicity           Mult            ....    1
 Number of Electrons    NEL             ....   16
 Basis Dimension        Dim             ....   36

ORBITAL ENERGIES
----------------

  NO   OCC          E(Eh)            E(eV)
   0   2.0000     -10.320379      -280.8318
   1   2.0000     -10.320327      -280.8304
   2   2.0000      -0.807727       -21.9794
   3   2.0000      -0.717012       -19.5109
   4   2.0000      -0.556733       -15.1495
   5   2.0000      -0.504118       -13.7178
   6   2.0000      -0.437395       -11.9021
   7   2.0000      -0.301135        -8.1943
   8   0.0000       0.030541         0.8311
   9   0.0000       0.203444         5.5360
  10   0.0000       0.210578         5.7301
  11   0.0000       0.269314         7.3284
  12   0.0000       0.281090         7.6488

MULLIKEN ATOMIC CHARGES
-----------------------
   0 C :   -0.380146
   1 C :   -0.380158
   2 H :    0.190055
   3 H :    0.190096
   4 H :    0.190098
   5 H :    0.190056
Sum of atomic charges:    0.0000000

LOEWDIN ATOMIC CHARGES
----------------------
   0 C :   -0.292778
   1 C :   -0.292788
   2 H :    0.146400
   3 H :    0.146382
   4 H :    0.146383
   5 H :    0.146401

  Mayer bond orders larger than 0.1
B(  0-C ,  1-C ) :   1.9877 B(  0-C ,  2-H ) :   0.9323 B(  0-C ,  3-H ) :   0.9323
B(  1-C ,  4-H ) :   0.9323 B(  1-C ,  5-H ) :   0.9323

Dispersion correction           -0.000364389
FINAL SINGLE POINT ENERGY       -78.446690260052

DIPOLE MOMENT
-------------
                                X             Y             Z
Electronic contribution:     -0.00001       0.00000      -0.00000
Nuclear contribution   :     -0.00000      -0.00000       0.00000
                        -----------------------------------------
Total Dipole Moment    :     -0.00001      -0.00000       0.00000
                        -----------------------------------------
Magnitude (a.u.)       :      0.00001
Magnitude (Debye)      :      0.00004

                             ****ORCA TERMINATED NORMALLY****
TOTAL RUN TIME: 0 days 0 hours 0 minutes 3 seconds 980 msec
