                         Program Version 4.0.0.2 - RELEASE -
|  1> ! WB97X-D3 6-31G(d) VerySlowConv
|  2> ! KDIIS NOSOSCF
|  3> %base "Scan_16"
|  4>
|  5> %scf
|  6> maxiter 999
|  7> end
|  8>
|  9> * xyz 0 1
| 10> C         -1.954586255272    1.270033620448    0.000342784047
| 11> C         -0.083170148640    1.280509802120   -0.000342887422
| 12> H         -2.409927872537    0.537870367403   -0.620858469134
| 13> H         -2.417645765084    1.998097527146    0.620656972413
| 14> H          0.379888967071    0.552445719730   -0.620656956165
| 15> H          0.372171074462    2.012672963152    0.620858556261
| 16> **                         ****END OF INPUT****

CARTESIAN COORDINATES (ANGSTROEM)
---------------------------------
  C     -1.954586    1.270034    0.000343
  C     -0.083170    1.280510   -0.000343
  H     -2.409928    0.537870   -0.620858
  H     -2.417646    1.998098    0.620657
  H      0.379889    0.552446   -0.620657
  H      0.372171    2.012673    0.620859

 Total Charge           Charge          ....    0
 Multiplicity           Mult            ....    1
 Number of Electrons    NEL             ....   16
 Basis Dimension        Dim             ....   36

ORBITAL ENERGIES
----------------

  NO   OCC          E(Eh)            E(eV)
   0   2.0000     -10.327820      -281.0343
   1   2.0000     -10.327767      -281.0328
   2   2.0000      -0.797936       -21.7129
   3   2.0000      -0.723286       -19.6816
   4   2.0000      -0.555694       -15.1212
   5   2.0000      -0.513762       -13.9802
   6   2.0000      -0.418785       -11.3957
   7   2.0000      -0.290638        -7.9087
   8   0.0000       0.016528         0.4498
   9   0.0000       0.169382         4.6091
  10   0.0000       0.209313         5.6957
  11   0.0000       0.266391         7.2489
  12   0.0000       0.274434         7.4677

MULLIKEN ATOMIC CHARGES
-----------------------
   0 C :   -0.388257
   1 C :   -0.388204
   2 H :    0.194093
   3 H :    0.194141
   4 H :    0.194137
   5 H :    0.194089
Sum of atomic charges:    0.0000000

LOEWDIN ATOMIC CHARGES
----------------------
   0 C :   -0.297116
   1 C :   -0.297069
   2 H :    0.148555
   3 H :    0.148540
   4 H :    0.148537
   5 H :    0.148552

  Mayer bond orders larger than 0.1
B(  0-C ,  1-C ) :   1.9830 B(  0-C ,  2-H ) :   0.9278 B(  0-C ,  3-H ) :   0.9277
B(  1-C ,  4-H ) :   0.9277 B(  1-C ,  5-H ) :   0.9278

Dispersion correction           -0.000403133
FINAL SINGLE POINT ENERGY       -78.407091317230

DIPOLE MOMENT
-------------
                                X             Y             Z
Electronic contribution:      0.00007       0.00000      -0.00000
Nuclear contribution   :     -0.00000      -0.00000       0.00000
                        -----------------------------------------
Total Dipole Moment    :      0.00007       0.00000       0.00000
                        -----------------------------------------
Magnitude (a.u.)       :      0.00007
Magnitude (Debye)      :      0.00017

                             ****ORCA TERMINATED NORMALLY****
TOTAL RUN TIME: 0 days 0 hours 0 minutes 3 seconds 951 msec
