                         Program Version 4.0.0.2 - RELEASE -
|  1> ! WB97X-D3 6-31G(d) VerySlowConv
|  2> ! KDIIS NOSOSCF
|  3> %base "Scan_17"
|  4>
|  5> %scf
|  6> maxiter 999
|  7> end
|  8>
|  9> * xyz 0 1
| 10> C         -2.006628990581    1.175270491592    0.111476998435
| 11> C         -0.031119651245    1.375234223752   -0.111431525073
| 12> H         -2.444419167811    0.575729906886   -0.652733638464
| 13> H         -2.452070588361    2.023256570954    0.577983636133
| 14> H          0.414309928774    0.527302455192   -0.578009472191
| 15> H          0.406658469224    1.974836351623    0.652714001160
| 16> **                         ****END OF INPUT****

CARTESIAN COORDINATES (ANGSTROEM)
---------------------------------
  C     -2.006629    1.175270    0.111477
  C     -0.031120    1.375234   -0.111432
  H     -2.444419    0.575730   -0.652734
  H     -2.452071    2.023257    0.577984
  H      0.414310    0.527302   -0.578009
  H      0.406658    1.974836    0.652714

 Total Charge           Charge          ....    0
 Multiplicity           Mult            ....    1
 Number of Electrons    NEL             ....   16
 Basis Dimension        Dim             ....   36

ORBITAL ENERGIES
----------------

  NO   OCC          E(Eh)            E(eV)
   0   2.0000     -10.334357      -281.2121
   1   2.0000     -10.334314      -281.2110
   2   2.0000      -0.791697       -21.5432
   3   2.0000      -0.730676       -19.8827
   4   2.0000      -0.549863       -14.9625
   5   2.0000      -0.515920       -14.0389
   6   2.0000      -0.397864       -10.8264
   7   2.0000      -0.289357        -7.8738
   8   0.0000      -0.006731        -0.1832
   9   0.0000       0.136641         3.7182
  10   0.0000       0.210199         5.7198
  11   0.0000       0.256786         6.9875
  12   0.0000       0.279966         7.6183

MULLIKEN ATOMIC CHARGES
-----------------------
   0 C :   -0.388293
   1 C :   -0.388312
   2 H :    0.193890
   3 H :    0.194403
   4 H :    0.194412
   5 H :    0.193899
Sum of atomic charges:    0.0000000

LOEWDIN ATOMIC CHARGES
----------------------
   0 C :   -0.293365
   1 C :   -0.293369
   2 H :    0.146573
   3 H :    0.146788
   4 H :    0.146793
   5 H :    0.146579

  Mayer bond orders larger than 0.1
B(  0-C ,  1-C ) :   1.8775 B(  0-C ,  2-H ) :   0.9228 B(  0-C ,  3-H ) :   0.9225
B(  1-C ,  4-H ) :   0.9225 B(  1-C ,  5-H ) :   0.9228

Dispersion correction           -0.000445026
FINAL SINGLE POINT ENERGY       -78.364775688005

DIPOLE MOMENT
-------------
                                X             Y             Z
Electronic contribution:      0.00004      -0.00006       0.00007
Nuclear contribution   :     -0.00002       0.00009      -0.00011
                        -----------------------------------------
Total Dipole Moment    :      0.00003       0.00004      -0.00004
                        -----------------------------------------
Magnitude (a.u.)       :      0.00006
Magnitude (Debye)      :      0.00016

                             ****ORCA TERMINATED NORMALLY****
TOTAL RUN TIME: 0 days 0 hours 0 minutes 3 seconds 763 msec
