                         Program Version 4.0.0.2 - RELEASE -
|  1> ! WB97X-D3 6-31G(d) VerySlowConv
|  2> ! KDIIS NOSOSCF
|  3> %base "Scan_18"
|  4>
|  5> %scf
|  6> maxiter 999
|  7> end
|  8>
|  9> * xyz 0 1
| 10> C         -2.061714537846    1.149592614236    0.141335952488
| 11> C          0.023958024028    1.400950806373   -0.141336050526
| 12> H         -2.481702215084    0.584425357300   -0.660920840667
| 13> H         -2.489341787430    2.029709763375    0.567890028189
| 14> H          0.451585043087    0.520833493236   -0.567890023515
| 15> H          0.443945473246    1.966117965480    0.660920934031
| 16> **                         ****END OF INPUT****

CARTESIAN COORDINATES (ANGSTROEM)
---------------------------------
  C     -2.061715    1.149593    0.141336
  C      0.023958    1.400951   -0.141336
  H     -2.481702    0.584425   -0.660921
  H     -2.489342    2.029710    0.567890
  H      0.451585    0.520833   -0.567890
  H      0.443945    1.966118    0.660921

 Total Charge           Charge          ....    0
 Multiplicity           Mult            ....    1
 Number of Electrons    NEL             ....   16
 Basis Dimension        Dim             ....   36

ORBITAL ENERGIES
----------------

  NO   OCC          E(Eh)            E(eV)
   0   2.0000     -10.338346      -281.3207
   1   2.0000     -10.338215      -281.3171
   2   2.0000      -0.786141       -21.3920
   3   2.0000      -0.736372       -20.0377
   4   2.0000      -0.546540       -14.8721
   5   2.0000      -0.519286       -14.1305
   6   2.0000      -0.380224       -10.3464
   7   2.0000      -0.286369        -7.7925
   8   0.0000      -0.020334        -0.5533
   9   0.0000       0.108012         2.9392
  10   0.0000       0.209923         5.7123
  11   0.0000       0.251092         6.8325
  12   0.0000       0.283794         7.7224

MULLIKEN ATOMIC CHARGES
-----------------------
   0 C :   -0.387997
   1 C :   -0.387776
   2 H :    0.193627
   3 H :    0.194276
   4 H :    0.194260
   5 H :    0.193611
Sum of atomic charges:    0.0000000

LOEWDIN ATOMIC CHARGES
----------------------
   0 C :   -0.291034
   1 C :   -0.290829
   2 H :    0.145409
   3 H :    0.145533
   4 H :    0.145523
   5 H :    0.145398

  Mayer bond orders larger than 0.1
B(  0-C ,  1-C ) :   1.7547 B(  0-C ,  2-H ) :   0.9199 B(  0-C ,  3-H ) :   0.9196
B(  1-C ,  4-H ) :   0.9196 B(  1-C ,  5-H ) :   0.9199

Dispersion correction           -0.000495438
FINAL SINGLE POINT ENERGY       -78.329901343875

DIPOLE MOMENT
-------------
                                X             Y             Z
Electronic contribution:      0.00033       0.00008      -0.00009
Nuclear contribution   :     -0.00000      -0.00000       0.00000
                        -----------------------------------------
Total Dipole Moment    :      0.00033       0.00008      -0.00009
                        -----------------------------------------
Magnitude (a.u.)       :      0.00035
Magnitude (Debye)      :      0.00089

                             ****ORCA TERMINATED NORMALLY****
TOTAL RUN TIME: 0 days 0 hours 0 minutes 3 seconds 841 msec
