                         Program Version 4.0.0.2 - RELEASE -
|  1> ! WB97X-D3 6-31G(d) VerySlowConv
|  2> ! KDIIS NOSOSCF
|  3> %base "Scan_19"
|  4>
|  5> %scf
|  6> maxiter 999
|  7> end
|  8>
|  9> * xyz 0 1
| 10> C         -2.117833675299    1.129604064884    0.164496888110
| 11> C          0.080076700386    1.420939363695   -0.164497001805
| 12> H         -2.522209014936    0.591692365213   -0.666300886515
| 13> H         -2.529830748527    2.033602351377    0.559640994426
| 14> H          0.492074235018    0.516941043223   -0.559640847011
| 15> H          0.484452503358    1.958850811608    0.666300852795
| 16> **                         ****END OF INPUT****

CARTESIAN COORDINATES (ANGSTROEM)
---------------------------------
  C     -2.117834    1.129604    0.164497
  C      0.080077    1.420939   -0.164497
  H     -2.522209    0.591692   -0.666301
  H     -2.529831    2.033602    0.559641
  H      0.492074    0.516941   -0.559641
  H      0.484453    1.958851    0.666301

 Total Charge           Charge          ....    0
 Multiplicity           Mult            ....    1
 Number of Electrons    NEL             ....   16
 Basis Dimension        Dim             ....   36

ORBITAL ENERGIES
----------------

  NO   OCC          E(Eh)            E(eV)
   0   2.0000     -10.340203      -281.3712
   1   2.0000     -10.340101      -281.3684
   2   2.0000      -0.781776       -21.2732
   3   2.0000      -0.741560       -20.1789
   4   2.0000      -0.543550       -14.7907
   5   2.0000      -0.521765       -14.1979
   6   2.0000      -0.365114        -9.9353
   7   2.0000      -0.284564        -7.7434
   8   0.0000      -0.029567        -0.8046
   9   0.0000       0.084739         2.3059
  10   0.0000       0.210088         5.7168
  11   0.0000       0.247117         6.7244
  12   0.0000       0.286610         7.7990

MULLIKEN ATOMIC CHARGES
-----------------------
   0 C :   -0.384648
   1 C :   -0.384477
   2 H :    0.191979
   3 H :    0.192596
   4 H :    0.192583
   5 H :    0.191966
Sum of atomic charges:    0.0000000

LOEWDIN ATOMIC CHARGES
----------------------
   0 C :   -0.286939
   1 C :   -0.286780
   2 H :    0.143446
   3 H :    0.143423
   4 H :    0.143414
   5 H :    0.143437

  Mayer bond orders larger than 0.1
B(  0-C ,  1-C ) :   1.5697 B(  0-C ,  2-H ) :   0.9188 B(  0-C ,  3-H ) :   0.9185
B(  1-C ,  4-H ) :   0.9185 B(  1-C ,  5-H ) :   0.9188

Dispersion correction           -0.000544508
FINAL SINGLE POINT ENERGY       -78.300540709390

DIPOLE MOMENT
-------------
                                X             Y             Z
Electronic contribution:      0.00027       0.00007      -0.00008
Nuclear contribution   :      0.00000      -0.00000       0.00000
                        -----------------------------------------
Total Dipole Moment    :      0.00027       0.00007      -0.00008
                        -----------------------------------------
Magnitude (a.u.)       :      0.00029
Magnitude (Debye)      :      0.00074

                             ****ORCA TERMINATED NORMALLY****
TOTAL RUN TIME: 0 days 0 hours 0 minutes 3 seconds 751 msec
