                         Program Version 4.0.0.2 - RELEASE -
|  1> ! WB97X-D3 6-31G(d) VerySlowConv
|  2> ! KDIIS NOSOSCF
|  3> %base "Scan_2"
|  4>
|  5> %scf
|  6> maxiter 999
|  7> end
|  8>
|  9> * xyz 0 1
| 10> C         -1.574074520092    1.272799831445   -0.000344049898
| 11> C         -0.463688627905    1.278927326109   -0.001048362637
| 12> H         -2.201627778267    0.587533812214   -0.578903437742
| 13> H         -2.208979002864    1.950015497595    0.579504959488
| 14> H          0.171225573434    0.599936500336   -0.578810708814
| 15> H          0.163874355695    1.962417032301    0.579601599603
| 16> **                         ****END OF INPUT****

CARTESIAN COORDINATES (ANGSTROEM)
---------------------------------
  C     -1.574075    1.272800   -0.000344
  C     -0.463689    1.278927   -0.001048
  H     -2.201628    0.587534   -0.578903
  H     -2.208979    1.950015    0.579505
  H      0.171226    0.599937   -0.578811
  H      0.163874    1.962417    0.579602

 Total Charge           Charge          ....    0
 Multiplicity           Mult            ....    1
 Number of Electrons    NEL             ....   16
 Basis Dimension        Dim             ....   36

ORBITAL ENERGIES
----------------

  NO   OCC          E(Eh)            E(eV)
   0   2.0000     -10.249518      -278.9036
   1   2.0000     -10.244339      -278.7626
   2   2.0000      -0.918701       -24.9991
   3   2.0000      -0.666691       -18.1416
   4   2.0000      -0.583241       -15.8708
   5   2.0000      -0.544071       -14.8049
   6   2.0000      -0.407037       -11.0760
   7   2.0000      -0.402270       -10.9463
   8   0.0000       0.162910         4.4330
   9   0.0000       0.208842         5.6829
  10   0.0000       0.223716         6.0876
  11   0.0000       0.262329         7.1383
  12   0.0000       0.368995        10.0409

MULLIKEN ATOMIC CHARGES
-----------------------
   0 C :   -0.308740
   1 C :   -0.308745
   2 H :    0.154314
   3 H :    0.154428
   4 H :    0.154422
   5 H :    0.154320
Sum of atomic charges:   -0.0000000

LOEWDIN ATOMIC CHARGES
----------------------
   0 C :   -0.258689
   1 C :   -0.258692
   2 H :    0.129327
   3 H :    0.129363
   4 H :    0.129368
   5 H :    0.129323

  Mayer bond orders larger than 0.1
B(  0-C ,  1-C ) :   2.0874 B(  0-C ,  2-H ) :   0.9376 B(  0-C ,  3-H ) :   0.9376
B(  1-C ,  4-H ) :   0.9376 B(  1-C ,  5-H ) :   0.9376

Dispersion correction           -0.000224631
FINAL SINGLE POINT ENERGY       -78.471288621277

DIPOLE MOMENT
-------------
                                X             Y             Z
Electronic contribution:     -0.00002       0.00196      -0.00233
Nuclear contribution   :      0.00002      -0.00285       0.00336
                        -----------------------------------------
Total Dipole Moment    :     -0.00000      -0.00090       0.00102
                        -----------------------------------------
Magnitude (a.u.)       :      0.00136
Magnitude (Debye)      :      0.00345

                             ****ORCA TERMINATED NORMALLY****
TOTAL RUN TIME: 0 days 0 hours 0 minutes 14 seconds 57 msec
