                         Program Version 4.0.0.2 - RELEASE -
|  1> ! WB97X-D3 6-31G(d) VerySlowConv
|  2> ! KDIIS NOSOSCF
|  3> %base "Scan_20"
|  4>
|  5> %scf
|  6> maxiter 999
|  7> end
|  8>
|  9> * xyz 0 1
| 10> C         -2.174259685427    1.112457637641    0.184313111790
| 11> C          0.136497381821    1.438080296810   -0.184306794187
| 12> H         -2.563204290093    0.597956486752   -0.670432456382
| 13> H         -2.570807808268    2.036421046757    0.552580043707
| 14> H          0.533053963742    0.514124036826   -0.552584018912
| 15> H          0.525450438225    1.952590495214    0.670430113984
| 16> **                         ****END OF INPUT****

CARTESIAN COORDINATES (ANGSTROEM)
---------------------------------
  C     -2.174260    1.112458    0.184313
  C      0.136497    1.438080   -0.184307
  H     -2.563204    0.597956   -0.670432
  H     -2.570808    2.036421    0.552580
  H      0.533054    0.514124   -0.552584
  H      0.525450    1.952590    0.670430

 Total Charge           Charge          ....    0
 Multiplicity           Mult            ....    1
 Number of Electrons    NEL             ....   16
 Basis Dimension        Dim             ....   36

ORBITAL ENERGIES
----------------

  NO   OCC          E(Eh)            E(eV)
   0   2.0000     -10.340227      -281.3719
   1   2.0000     -10.340214      -281.3715
   2   2.0000      -0.778386       -21.1810
   3   2.0000      -0.746019       -20.3002
   4   2.0000      -0.540983       -14.7209
   5   2.0000      -0.523537       -14.2462
   6   2.0000      -0.352453        -9.5907
   7   2.0000      -0.284390        -7.7387
   8   0.0000      -0.034877        -0.9490
   9   0.0000       0.067103         1.8260
  10   0.0000       0.210358         5.7241
  11   0.0000       0.243943         6.6380
  12   0.0000       0.288589         7.8529

MULLIKEN ATOMIC CHARGES
-----------------------
   0 C :   -0.379365
   1 C :   -0.379365
   2 H :    0.189441
   3 H :    0.189922
   4 H :    0.189924
   5 H :    0.189443
Sum of atomic charges:   -0.0000000

LOEWDIN ATOMIC CHARGES
----------------------
   0 C :   -0.281705
   1 C :   -0.281700
   2 H :    0.140945
   3 H :    0.140756
   4 H :    0.140757
   5 H :    0.140946

  Mayer bond orders larger than 0.1
B(  0-C ,  1-C ) :   1.3188 B(  0-C ,  2-H ) :   0.9192 B(  0-C ,  3-H ) :   0.9189
B(  1-C ,  4-H ) :   0.9189 B(  1-C ,  5-H ) :   0.9192

Dispersion correction           -0.000586504
FINAL SINGLE POINT ENERGY       -78.277038128919

DIPOLE MOMENT
-------------
                                X             Y             Z
Electronic contribution:      0.00001      -0.00000       0.00000
Nuclear contribution   :      0.00001       0.00001      -0.00002
                        -----------------------------------------
Total Dipole Moment    :      0.00003       0.00001      -0.00001
                        -----------------------------------------
Magnitude (a.u.)       :      0.00003
Magnitude (Debye)      :      0.00008

                             ****ORCA TERMINATED NORMALLY****
TOTAL RUN TIME: 0 days 0 hours 0 minutes 4 seconds 921 msec
