                         Program Version 4.0.0.2 - RELEASE -
|  1> ! WB97X-D3 6-31G(d) VerySlowConv
|  2> ! KDIIS NOSOSCF
|  3> %base "Scan_21"
|  4>
|  5> %scf
|  6> maxiter 999
|  7> end
|  8>
|  9> * xyz 0 1
| 10> C         -2.230724786975    1.097185724927    0.201924342001
| 11> C          0.192968462101    1.453357850962   -0.201924620340
| 12> H         -2.603705324412    0.603429940257   -0.673782324408
| 13> H         -2.611291396916    2.038598425491    0.546427772887
| 14> H          0.573534557182    0.511944830916   -0.546427614339
| 15> H          0.565948489021    1.947113227447    0.673782444198
| 16> **                         ****END OF INPUT****

CARTESIAN COORDINATES (ANGSTROEM)
---------------------------------
  C     -2.230725    1.097186    0.201924
  C      0.192968    1.453358   -0.201925
  H     -2.603705    0.603430   -0.673782
  H     -2.611291    2.038598    0.546428
  H      0.573535    0.511945   -0.546428
  H      0.565948    1.947113    0.673782

 Total Charge           Charge          ....    0
 Multiplicity           Mult            ....    1
 Number of Electrons    NEL             ....   16
 Basis Dimension        Dim             ....   36

ORBITAL ENERGIES
----------------

  NO   OCC          E(Eh)            E(eV)
   0   2.0000     -10.339337      -281.3477
   1   2.0000     -10.339330      -281.3475
   2   2.0000      -0.775884       -21.1129
   3   2.0000      -0.749810       -20.4034
   4   2.0000      -0.538929       -14.6650
   5   2.0000      -0.524876       -14.2826
   6   2.0000      -0.342435        -9.3181
   7   2.0000      -0.285917        -7.7802
   8   0.0000      -0.037418        -1.0182
   9   0.0000       0.054181         1.4743
  10   0.0000       0.210631         5.7316
  11   0.0000       0.241237         6.5644
  12   0.0000       0.287908         7.8344

MULLIKEN ATOMIC CHARGES
-----------------------
   0 C :   -0.374018
   1 C :   -0.374005
   2 H :    0.186847
   3 H :    0.187166
   4 H :    0.187165
   5 H :    0.186845
Sum of atomic charges:   -0.0000000

LOEWDIN ATOMIC CHARGES
----------------------
   0 C :   -0.276433
   1 C :   -0.276421
   2 H :    0.138375
   3 H :    0.138053
   4 H :    0.138052
   5 H :    0.138374

  Mayer bond orders larger than 0.1
B(  0-C ,  1-C ) :   1.0398 B(  0-C ,  2-H ) :   0.9202 B(  0-C ,  3-H ) :   0.9200
B(  1-C ,  4-H ) :   0.9200 B(  1-C ,  5-H ) :   0.9202

Dispersion correction           -0.000614912
FINAL SINGLE POINT ENERGY       -78.259055827566

DIPOLE MOMENT
-------------
                                X             Y             Z
Electronic contribution:      0.00002       0.00001      -0.00001
Nuclear contribution   :     -0.00000      -0.00000       0.00000
                        -----------------------------------------
Total Dipole Moment    :      0.00002       0.00001      -0.00001
                        -----------------------------------------
Magnitude (a.u.)       :      0.00002
Magnitude (Debye)      :      0.00005

                             ****ORCA TERMINATED NORMALLY****
TOTAL RUN TIME: 0 days 0 hours 0 minutes 4 seconds 514 msec
