                         Program Version 4.0.0.2 - RELEASE -
|  1> ! WB97X-D3 6-31G(d) VerySlowConv
|  2> ! KDIIS NOSOSCF
|  3> %base "Scan_22"
|  4>
|  5> %scf
|  6> maxiter 999
|  7> end
|  8>
|  9> * xyz 0 1
| 10> C         -2.285912915355    1.082694650886    0.218625147300
| 11> C          0.248138160892    1.467816068310   -0.218586894463
| 12> H         -2.642037400804    0.608595323125   -0.676802007256
| 13> H         -2.649606309367    2.040512786877    0.540643997854
| 14> H          0.611858770926    0.510031196078   -0.540676464843
| 15> H          0.604289693707    1.941979974724    0.676796221408
| 16> **                         ****END OF INPUT****

CARTESIAN COORDINATES (ANGSTROEM)
---------------------------------
  C     -2.285913    1.082695    0.218625
  C      0.248138    1.467816   -0.218587
  H     -2.642037    0.608595   -0.676802
  H     -2.649606    2.040513    0.540644
  H      0.611859    0.510031   -0.540676
  H      0.604290    1.941980    0.676796

 Total Charge           Charge          ....    0
 Multiplicity           Mult            ....    1
 Number of Electrons    NEL             ....   16
 Basis Dimension        Dim             ....   36

ORBITAL ENERGIES
----------------

  NO   OCC          E(Eh)            E(eV)
   0   2.0000     -10.338192      -281.3165
   1   2.0000     -10.338179      -281.3162
   2   2.0000      -0.774153       -21.0658
   3   2.0000      -0.752989       -20.4899
   4   2.0000      -0.537187       -14.6176
   5   2.0000      -0.525722       -14.3056
   6   2.0000      -0.334849        -9.1117
   7   2.0000      -0.288963        -7.8631
   8   0.0000      -0.038588        -1.0500
   9   0.0000       0.044550         1.2123
  10   0.0000       0.210750         5.7348
  11   0.0000       0.238811         6.4984
  12   0.0000       0.285815         7.7774

MULLIKEN ATOMIC CHARGES
-----------------------
   0 C :   -0.369315
   1 C :   -0.369321
   2 H :    0.184579
   3 H :    0.184735
   4 H :    0.184739
   5 H :    0.184583
Sum of atomic charges:    0.0000000

LOEWDIN ATOMIC CHARGES
----------------------
   0 C :   -0.271615
   1 C :   -0.271610
   2 H :    0.135992
   3 H :    0.135614
   4 H :    0.135621
   5 H :    0.135998

  Mayer bond orders larger than 0.1
B(  0-C ,  1-C ) :   0.7803 B(  0-C ,  2-H ) :   0.9213 B(  0-C ,  3-H ) :   0.9211
B(  1-C ,  4-H ) :   0.9211 B(  1-C ,  5-H ) :   0.9213

Dispersion correction           -0.000626816
FINAL SINGLE POINT ENERGY       -78.246052877093

DIPOLE MOMENT
-------------
                                X             Y             Z
Electronic contribution:      0.00006      -0.00001       0.00002
Nuclear contribution   :      0.00004       0.00008      -0.00009
                        -----------------------------------------
Total Dipole Moment    :      0.00010       0.00006      -0.00007
                        -----------------------------------------
Magnitude (a.u.)       :      0.00014
Magnitude (Debye)      :      0.00036

                             ****ORCA TERMINATED NORMALLY****
TOTAL RUN TIME: 0 days 0 hours 0 minutes 4 seconds 499 msec
