                         Program Version 4.0.0.2 - RELEASE -
|  1> ! WB97X-D3 6-31G(d) VerySlowConv
|  2> ! KDIIS NOSOSCF
|  3> %base "Scan_23"
|  4>
|  5> %scf
|  6> maxiter 999
|  7> end
|  8>
|  9> * xyz 0 1
| 10> C         -2.340408382297    1.068631475247    0.234826963053
| 11> C          0.302655772808    1.481914437888   -0.234829963906
| 12> H         -2.674389817096    0.613165648615   -0.679658310253
| 13> H         -2.681944540452    2.042398285173    0.535505003474
| 14> H          0.644185839922    0.508144372292   -0.535503004364
| 15> H          0.636631127115    1.937375780785    0.679659311996
| 16> **                         ****END OF INPUT****

CARTESIAN COORDINATES (ANGSTROEM)
---------------------------------
  C     -2.340408    1.068631    0.234827
  C      0.302656    1.481914   -0.234830
  H     -2.674390    0.613166   -0.679658
  H     -2.681945    2.042398    0.535505
  H      0.644186    0.508144   -0.535503
  H      0.636631    1.937376    0.679659

 Total Charge           Charge          ....    0
 Multiplicity           Mult            ....    1
 Number of Electrons    NEL             ....   16
 Basis Dimension        Dim             ....   36

ORBITAL ENERGIES
----------------

  NO   OCC          E(Eh)            E(eV)
   0   2.0000     -10.337273      -281.2915
   1   2.0000     -10.337248      -281.2908
   2   2.0000      -0.773303       -21.0426
   3   2.0000      -0.755899       -20.5691
   4   2.0000      -0.536371       -14.5954
   5   2.0000      -0.526874       -14.3370
   6   2.0000      -0.328815        -8.9475
   7   2.0000      -0.292862        -7.9692
   8   0.0000      -0.039828        -1.0838
   9   0.0000       0.036898         1.0040
  10   0.0000       0.210684         5.7330
  11   0.0000       0.236779         6.4431
  12   0.0000       0.284126         7.7315

MULLIKEN ATOMIC CHARGES
-----------------------
   0 C :   -0.366549
   1 C :   -0.366528
   2 H :    0.183233
   3 H :    0.183309
   4 H :    0.183305
   5 H :    0.183230
Sum of atomic charges:    0.0000000

LOEWDIN ATOMIC CHARGES
----------------------
   0 C :   -0.268060
   1 C :   -0.268041
   2 H :    0.134180
   3 H :    0.133873
   4 H :    0.133870
   5 H :    0.134177

  Mayer bond orders larger than 0.1
B(  0-C ,  1-C ) :   0.5699 B(  0-C ,  2-H ) :   0.9220 B(  0-C ,  3-H ) :   0.9220
B(  1-C ,  4-H ) :   0.9220 B(  1-C ,  5-H ) :   0.9220

Dispersion correction           -0.000627026
FINAL SINGLE POINT ENERGY       -78.236093994288

DIPOLE MOMENT
-------------
                                X             Y             Z
Electronic contribution:      0.00003       0.00001      -0.00001
Nuclear contribution   :     -0.00001      -0.00001       0.00001
                        -----------------------------------------
Total Dipole Moment    :      0.00002       0.00000      -0.00000
                        -----------------------------------------
Magnitude (a.u.)       :      0.00002
Magnitude (Debye)      :      0.00005

                             ****ORCA TERMINATED NORMALLY****
TOTAL RUN TIME: 0 days 0 hours 0 minutes 14 seconds 313 msec
