                         Program Version 4.0.0.2 - RELEASE -
|  1> ! WB97X-D3 6-31G(d) VerySlowConv
|  2> ! KDIIS NOSOSCF
|  3> %base "Scan_24"
|  4>
|  5> %scf
|  6> maxiter 999
|  7> end
|  8>
|  9> * xyz 0 1
| 10> C         -2.393181889917    1.055008374766    0.250521883343
| 11> C          0.355423661632    1.495534106232   -0.250520882794
| 12> H         -2.702067347530    0.617243477543   -0.682472927855
| 13> H         -2.709610840995    2.044350534952    0.530883181425
| 14> H          0.671854951959    0.506193219868   -0.530883701963
| 15> H          0.664311464851    1.933300286639    0.682472447845
| 16> **                         ****END OF INPUT****

CARTESIAN COORDINATES (ANGSTROEM)
---------------------------------
  C     -2.393182    1.055008    0.250522
  C      0.355424    1.495534   -0.250521
  H     -2.702067    0.617243   -0.682473
  H     -2.709611    2.044351    0.530883
  H      0.671855    0.506193   -0.530884
  H      0.664311    1.933300    0.682472

 Total Charge           Charge          ....    0
 Multiplicity           Mult            ....    1
 Number of Electrons    NEL             ....   16
 Basis Dimension        Dim             ....   36

ORBITAL ENERGIES
----------------

  NO   OCC          E(Eh)            E(eV)
   0   2.0000     -10.336711      -281.2762
   1   2.0000     -10.336631      -281.2740
   2   2.0000      -0.772981       -21.0339
   3   2.0000      -0.758487       -20.6395
   4   2.0000      -0.535904       -14.5827
   5   2.0000      -0.527900       -14.3649
   6   2.0000      -0.324144        -8.8204
   7   2.0000      -0.297124        -8.0851
   8   0.0000      -0.041166        -1.1202
   9   0.0000       0.030417         0.8277
  10   0.0000       0.210286         5.7222
  11   0.0000       0.234796         6.3891
  12   0.0000       0.282468         7.6863

MULLIKEN ATOMIC CHARGES
-----------------------
   0 C :   -0.364521
   1 C :   -0.364619
   2 H :    0.182235
   3 H :    0.182310
   4 H :    0.182334
   5 H :    0.182259
Sum of atomic charges:    0.0000000

LOEWDIN ATOMIC CHARGES
----------------------
   0 C :   -0.265258
   1 C :   -0.265344
   2 H :    0.132697
   3 H :    0.132586
   4 H :    0.132604
   5 H :    0.132714

  Mayer bond orders larger than 0.1
B(  0-C ,  1-C ) :   0.4069 B(  0-C ,  2-H ) :   0.9224 B(  0-C ,  3-H ) :   0.9225
B(  1-C ,  4-H ) :   0.9225 B(  1-C ,  5-H ) :   0.9224

Dispersion correction           -0.000621526
FINAL SINGLE POINT ENERGY       -78.228604617030

DIPOLE MOMENT
-------------
                                X             Y             Z
Electronic contribution:     -0.00012      -0.00005       0.00006
Nuclear contribution   :      0.00000       0.00000      -0.00000
                        -----------------------------------------
Total Dipole Moment    :     -0.00011      -0.00005       0.00005
                        -----------------------------------------
Magnitude (a.u.)       :      0.00013
Magnitude (Debye)      :      0.00034

                             ****ORCA TERMINATED NORMALLY****
TOTAL RUN TIME: 0 days 0 hours 0 minutes 15 seconds 586 msec
