                         Program Version 4.0.0.2 - RELEASE -
|  1> ! WB97X-D3 6-31G(d) VerySlowConv
|  2> ! KDIIS NOSOSCF
|  3> %base "Scan_25"
|  4>
|  5> %scf
|  6> maxiter 999
|  7> end
|  8>
|  9> * xyz 0 1
| 10> C         -2.444275028001    1.040152262854    0.267677474175
| 11> C          0.406509482097    1.510398553551   -0.267686326429
| 12> H         -2.714366638073    0.620941199883   -0.685728696670
| 13> H         -2.721904047453    2.046893669664    0.526645781691
| 14> H          0.684151717069    0.503661577318   -0.526628038354
| 15> H          0.676614514361    1.929582736730    0.685719805586
| 16> **                         ****END OF INPUT****

CARTESIAN COORDINATES (ANGSTROEM)
---------------------------------
  C     -2.444275    1.040152    0.267677
  C      0.406509    1.510399   -0.267686
  H     -2.714367    0.620941   -0.685729
  H     -2.721904    2.046894    0.526646
  H      0.684152    0.503662   -0.526628
  H      0.676615    1.929583    0.685720

 Total Charge           Charge          ....    0
 Multiplicity           Mult            ....    1
 Number of Electrons    NEL             ....   16
 Basis Dimension        Dim             ....   36

ORBITAL ENERGIES
----------------

  NO   OCC          E(Eh)            E(eV)
   0   2.0000     -10.336272      -281.2643
   1   2.0000     -10.336234      -281.2632
   2   2.0000      -0.773507       -21.0482
   3   2.0000      -0.761119       -20.7111
   4   2.0000      -0.536634       -14.6026
   5   2.0000      -0.529662       -14.4128
   6   2.0000      -0.319612        -8.6971
   7   2.0000      -0.301939        -8.2162
   8   0.0000      -0.043632        -1.1873
   9   0.0000       0.024698         0.6721
  10   0.0000       0.209251         5.6940
  11   0.0000       0.233146         6.3442
  12   0.0000       0.281013         7.6468

MULLIKEN ATOMIC CHARGES
-----------------------
   0 C :   -0.364416
   1 C :   -0.364388
   2 H :    0.182126
   3 H :    0.182285
   4 H :    0.182276
   5 H :    0.182117
Sum of atomic charges:    0.0000000

LOEWDIN ATOMIC CHARGES
----------------------
   0 C :   -0.263835
   1 C :   -0.263808
   2 H :    0.131819
   3 H :    0.132011
   4 H :    0.132003
   5 H :    0.131810

  Mayer bond orders larger than 0.1
B(  0-C ,  1-C ) :   0.2778 B(  0-C ,  2-H ) :   0.9225 B(  0-C ,  3-H ) :   0.9227
B(  1-C ,  4-H ) :   0.9227 B(  1-C ,  5-H ) :   0.9225

Dispersion correction           -0.000620431
FINAL SINGLE POINT ENERGY       -78.221685967355

DIPOLE MOMENT
-------------
                                X             Y             Z
Electronic contribution:      0.00000       0.00002      -0.00002
Nuclear contribution   :      0.00002      -0.00002       0.00002
                        -----------------------------------------
Total Dipole Moment    :      0.00003       0.00000      -0.00000
                        -----------------------------------------
Magnitude (a.u.)       :      0.00003
Magnitude (Debye)      :      0.00007

                             ****ORCA TERMINATED NORMALLY****
TOTAL RUN TIME: 0 days 0 hours 0 minutes 4 seconds 251 msec
