                         Program Version 4.0.0.2 - RELEASE -
|  1> ! WB97X-D3 6-31G(d) VerySlowConv
|  2> ! KDIIS NOSOSCF
|  3> %base "Scan_26"
|  4>
|  5> %scf
|  6> maxiter 999
|  7> end
|  8>
|  9> * xyz 0 1
| 10> C         -2.494342864325    1.026030086588    0.283976208346
| 11> C          0.456573881079    1.524510691853   -0.283973277442
| 12> H         -2.722770566183    0.624419197593   -0.688395676668
| 13> H         -2.730300253166    2.048914950625    0.522740255690
| 14> H          0.692549740789    0.501630458114   -0.522741050614
| 15> H          0.685020061806    1.926124615227    0.688393540689
| 16> **                         ****END OF INPUT****

CARTESIAN COORDINATES (ANGSTROEM)
---------------------------------
  C     -2.494343    1.026030    0.283976
  C      0.456574    1.524511   -0.283973
  H     -2.722771    0.624419   -0.688396
  H     -2.730300    2.048915    0.522740
  H      0.692550    0.501630   -0.522741
  H      0.685020    1.926125    0.688394

 Total Charge           Charge          ....    0
 Multiplicity           Mult            ....    1
 Number of Electrons    NEL             ....   16
 Basis Dimension        Dim             ....   36

ORBITAL ENERGIES
----------------

  NO   OCC          E(Eh)            E(eV)
   0   2.0000     -10.336073      -281.2589
   1   2.0000     -10.336019      -281.2574
   2   2.0000      -0.774403       -21.0726
   3   2.0000      -0.763721       -20.7819
   4   2.0000      -0.537329       -14.6215
   5   2.0000      -0.531160       -14.4536
   6   2.0000      -0.316078        -8.6009
   7   2.0000      -0.306561        -8.3420
   8   0.0000      -0.045908        -1.2492
   9   0.0000       0.019200         0.5225
  10   0.0000       0.207747         5.6531
  11   0.0000       0.231240         6.2924
  12   0.0000       0.279394         7.6027

MULLIKEN ATOMIC CHARGES
-----------------------
   0 C :   -0.363206
   1 C :   -0.363254
   2 H :    0.181529
   3 H :    0.181683
   4 H :    0.181702
   5 H :    0.181548
Sum of atomic charges:   -0.0000000

LOEWDIN ATOMIC CHARGES
----------------------
   0 C :   -0.262193
   1 C :   -0.262232
   2 H :    0.130917
   3 H :    0.131282
   4 H :    0.131296
   5 H :    0.130931

  Mayer bond orders larger than 0.1
B(  0-C ,  1-C ) :   0.1764 B(  0-C ,  2-H ) :   0.9224 B(  0-C ,  3-H ) :   0.9228
B(  1-C ,  4-H ) :   0.9228 B(  1-C ,  5-H ) :   0.9224

Dispersion correction           -0.000621420
FINAL SINGLE POINT ENERGY       -78.216145343801

DIPOLE MOMENT
-------------
                                X             Y             Z
Electronic contribution:     -0.00003      -0.00002       0.00002
Nuclear contribution   :      0.00003       0.00001      -0.00001
                        -----------------------------------------
Total Dipole Moment    :     -0.00000      -0.00001       0.00002
                        -----------------------------------------
Magnitude (a.u.)       :      0.00002
Magnitude (Debye)      :      0.00006

                             ****ORCA TERMINATED NORMALLY****
TOTAL RUN TIME: 0 days 0 hours 0 minutes 4 seconds 304 msec
