                         Program Version 4.0.0.2 - RELEASE -
|  1> ! WB97X-D3 6-31G(d) VerySlowConv
|  2> ! KDIIS NOSOSCF
|  3> %base "Scan_27"
|  4>
|  5> %scf
|  6> maxiter 999
|  7> end
|  8>
|  9> * xyz 0 1
| 10> C         -2.544182554727    1.013761266528    0.298096507576
| 11> C          0.506509744194    1.536836796946   -0.298160354847
| 12> H         -2.727732900096    0.626783528144   -0.690134932475
| 13> H         -2.735256984426    2.050220822794    0.520101076082
| 14> H          0.697458272493    0.500317450702   -0.520050195819
| 15> H          0.689934422563    1.923710134886    0.690147899483
| 16> **                         ****END OF INPUT****

CARTESIAN COORDINATES (ANGSTROEM)
---------------------------------
  C     -2.544183    1.013761    0.298097
  C      0.506510    1.536837   -0.298160
  H     -2.727733    0.626784   -0.690135
  H     -2.735257    2.050221    0.520101
  H      0.697458    0.500317   -0.520050
  H      0.689934    1.923710    0.690148

 Total Charge           Charge          ....    0
 Multiplicity           Mult            ....    1
 Number of Electrons    NEL             ....   16
 Basis Dimension        Dim             ....   36

ORBITAL ENERGIES
----------------

  NO   OCC          E(Eh)            E(eV)
   0   2.0000     -10.335862      -281.2531
   1   2.0000     -10.335823      -281.2521
   2   2.0000      -0.775614       -21.1055
   3   2.0000      -0.766365       -20.8539
   4   2.0000      -0.538373       -14.6499
   5   2.0000      -0.532855       -14.4997
   6   2.0000      -0.313211        -8.5229
   7   2.0000      -0.310525        -8.4498
   8   0.0000      -0.047322        -1.2877
   9   0.0000       0.013862         0.3772
  10   0.0000       0.205887         5.6025
  11   0.0000       0.229143         6.2353
  12   0.0000       0.278044         7.5659

MULLIKEN ATOMIC CHARGES
-----------------------
   0 C :   -0.360947
   1 C :   -0.360921
   2 H :    0.180451
   3 H :    0.180513
   4 H :    0.180483
   5 H :    0.180422
Sum of atomic charges:    0.0000000

LOEWDIN ATOMIC CHARGES
----------------------
   0 C :   -0.260448
   1 C :   -0.260442
   2 H :    0.130073
   3 H :    0.130393
   4 H :    0.130372
   5 H :    0.130052

  Mayer bond orders larger than 0.1
B(  0-C ,  2-H ) :   0.9223 B(  0-C ,  3-H ) :   0.9228 B(  1-C ,  4-H ) :   0.9228
B(  1-C ,  5-H ) :   0.9224

Dispersion correction           -0.000624640
FINAL SINGLE POINT ENERGY       -78.211673422004

DIPOLE MOMENT
-------------
                                X             Y             Z
Electronic contribution:     -0.00012       0.00004      -0.00005
Nuclear contribution   :     -0.00020      -0.00013       0.00015
                        -----------------------------------------
Total Dipole Moment    :     -0.00032      -0.00009       0.00011
                        -----------------------------------------
Magnitude (a.u.)       :      0.00035
Magnitude (Debye)      :      0.00090

                             ****ORCA TERMINATED NORMALLY****
TOTAL RUN TIME: 0 days 0 hours 0 minutes 4 seconds 27 msec
