                         Program Version 4.0.0.2 - RELEASE -
|  1> ! WB97X-D3 6-31G(d) VerySlowConv
|  2> ! KDIIS NOSOSCF
|  3> %base "Scan_28"
|  4>
|  5> %scf
|  6> maxiter 999
|  7> end
|  8>
|  9> * xyz 0 1
| 10> C         -2.594309649318    1.003558953579    0.309784468956
| 11> C          0.556587790401    1.546993471158   -0.309794943306
| 12> H         -2.730398360073    0.627970953751   -0.690799073230
| 13> H         -2.737918561507    2.050668968878    0.518808397243
| 14> H          0.700144456918    0.499871914578   -0.518801373209
| 15> H          0.692624323579    1.922565738056    0.690802523547
| 16> **                         ****END OF INPUT****

CARTESIAN COORDINATES (ANGSTROEM)
---------------------------------
  C     -2.594310    1.003559    0.309784
  C      0.556588    1.546993   -0.309795
  H     -2.730398    0.627971   -0.690799
  H     -2.737919    2.050669    0.518808
  H      0.700144    0.499872   -0.518801
  H      0.692624    1.922566    0.690803

 Total Charge           Charge          ....    0
 Multiplicity           Mult            ....    1
 Number of Electrons    NEL             ....   16
 Basis Dimension        Dim             ....   36

ORBITAL ENERGIES
----------------

  NO   OCC          E(Eh)            E(eV)
   0   2.0000     -10.335841      -281.2525
   1   2.0000     -10.335805      -281.2516
   2   2.0000      -0.777041       -21.1444
   3   2.0000      -0.769019       -20.9261
   4   2.0000      -0.539718       -14.6865
   5   2.0000      -0.534743       -14.5511
   6   2.0000      -0.313640        -8.5346
   7   2.0000      -0.311250        -8.4695
   8   0.0000      -0.047403        -1.2899
   9   0.0000       0.008634         0.2349
  10   0.0000       0.203862         5.5474
  11   0.0000       0.226959         6.1759
  12   0.0000       0.277121         7.5409

MULLIKEN ATOMIC CHARGES
-----------------------
   0 C :   -0.357739
   1 C :   -0.357747
   2 H :    0.178874
   3 H :    0.178868
   4 H :    0.178868
   5 H :    0.178874
Sum of atomic charges:   -0.0000000

LOEWDIN ATOMIC CHARGES
----------------------
   0 C :   -0.258524
   1 C :   -0.258534
   2 H :    0.129184
   3 H :    0.129345
   4 H :    0.129345
   5 H :    0.129184

  Mayer bond orders larger than 0.1
B(  0-C ,  2-H ) :   0.9222 B(  0-C ,  3-H ) :   0.9228 B(  1-C ,  4-H ) :   0.9228
B(  1-C ,  5-H ) :   0.9222

Dispersion correction           -0.000628720
FINAL SINGLE POINT ENERGY       -78.208372808646

DIPOLE MOMENT
-------------
                                X             Y             Z
Electronic contribution:     -0.00002      -0.00000       0.00001
Nuclear contribution   :     -0.00008      -0.00002       0.00003
                        -----------------------------------------
Total Dipole Moment    :     -0.00011      -0.00003       0.00003
                        -----------------------------------------
Magnitude (a.u.)       :      0.00011
Magnitude (Debye)      :      0.00029

                             ****ORCA TERMINATED NORMALLY****
TOTAL RUN TIME: 0 days 0 hours 0 minutes 3 seconds 743 msec
