                         Program Version 4.0.0.2 - RELEASE -
|  1> ! WB97X-D3 6-31G(d) VerySlowConv
|  2> ! KDIIS NOSOSCF
|  3> %base "Scan_29"
|  4>
|  5> %scf
|  6> maxiter 999
|  7> end
|  8>
|  9> * xyz 0 1
| 10> C         -2.644892109525    0.995682055768    0.318734525756
| 11> C          0.607165164524    1.554862916070   -0.318736269583
| 12> H         -2.732775400405    0.627879323312   -0.690284091367
| 13> H         -2.740293439771    2.050160845430    0.518969283978
| 14> H          0.702521857566    0.500380271810   -0.518969578918
| 15> H          0.695003927611    1.922664587610    0.690286130133
| 16> **                         ****END OF INPUT****

CARTESIAN COORDINATES (ANGSTROEM)
---------------------------------
  C     -2.644892    0.995682    0.318735
  C      0.607165    1.554863   -0.318736
  H     -2.732775    0.627879   -0.690284
  H     -2.740293    2.050161    0.518969
  H      0.702522    0.500380   -0.518970
  H      0.695004    1.922665    0.690286

 Total Charge           Charge          ....    0
 Multiplicity           Mult            ....    1
 Number of Electrons    NEL             ....   16
 Basis Dimension        Dim             ....   36

ORBITAL ENERGIES
----------------

  NO   OCC          E(Eh)            E(eV)
   0   2.0000     -10.336212      -281.2626
   1   2.0000     -10.336179      -281.2617
   2   2.0000      -0.778471       -21.1833
   3   2.0000      -0.771491       -20.9933
   4   2.0000      -0.541137       -14.7251
   5   2.0000      -0.536623       -14.6023
   6   2.0000      -0.315692        -8.5904
   7   2.0000      -0.310428        -8.4472
   8   0.0000      -0.046154        -1.2559
   9   0.0000       0.003561         0.0969
  10   0.0000       0.202005         5.4968
  11   0.0000       0.224891         6.1196
  12   0.0000       0.276809         7.5324

MULLIKEN ATOMIC CHARGES
-----------------------
   0 C :   -0.354537
   1 C :   -0.354540
   2 H :    0.177275
   3 H :    0.177264
   4 H :    0.177264
   5 H :    0.177275
Sum of atomic charges:    0.0000000

LOEWDIN ATOMIC CHARGES
----------------------
   0 C :   -0.256792
   1 C :   -0.256796
   2 H :    0.128394
   3 H :    0.128400
   4 H :    0.128400
   5 H :    0.128394

  Mayer bond orders larger than 0.1
B(  0-C ,  2-H ) :   0.9221 B(  0-C ,  3-H ) :   0.9226 B(  1-C ,  4-H ) :   0.9226
B(  1-C ,  5-H ) :   0.9221

Dispersion correction           -0.000631002
FINAL SINGLE POINT ENERGY       -78.206311405175

DIPOLE MOMENT
-------------
                                X             Y             Z
Electronic contribution:     -0.00001      -0.00001       0.00001
Nuclear contribution   :     -0.00007      -0.00000       0.00000
                        -----------------------------------------
Total Dipole Moment    :     -0.00008      -0.00001       0.00001
                        -----------------------------------------
Magnitude (a.u.)       :      0.00008
Magnitude (Debye)      :      0.00020

                             ****ORCA TERMINATED NORMALLY****
TOTAL RUN TIME: 0 days 0 hours 0 minutes 15 seconds 144 msec
