                         Program Version 4.0.0.2 - RELEASE -
|  1> ! WB97X-D3 6-31G(d) VerySlowConv
|  2> ! KDIIS NOSOSCF
|  3> %base "Scan_3"
|  4>
|  5> %scf
|  6> maxiter 999
|  7> end
|  8>
|  9> * xyz 0 1
| 10> C         -1.584640198159    1.272288644271    0.000030173488
| 11> C         -0.453116232653    1.278234129775   -0.000005990192
| 12> H         -2.205743109244    0.586327810710   -0.580412520767
| 13> H         -2.212991879734    1.951643736705    0.580407407572
| 14> H          0.175235094529    0.598909852501   -0.580419648271
| 15> H          0.167986325261    1.964225826037    0.580400578170
| 16> **                         ****END OF INPUT****

CARTESIAN COORDINATES (ANGSTROEM)
---------------------------------
  C     -1.584640    1.272289    0.000030
  C     -0.453116    1.278234   -0.000006
  H     -2.205743    0.586328   -0.580413
  H     -2.212992    1.951644    0.580407
  H      0.175235    0.598910   -0.580420
  H      0.167986    1.964226    0.580401

 Total Charge           Charge          ....    0
 Multiplicity           Mult            ....    1
 Number of Electrons    NEL             ....   16
 Basis Dimension        Dim             ....   36

ORBITAL ENERGIES
----------------

  NO   OCC          E(Eh)            E(eV)
   0   2.0000     -10.251703      -278.9630
   1   2.0000     -10.247388      -278.8456
   2   2.0000      -0.914344       -24.8806
   3   2.0000      -0.668921       -18.2023
   4   2.0000      -0.581208       -15.8155
   5   2.0000      -0.541701       -14.7404
   6   2.0000      -0.407042       -11.0762
   7   2.0000      -0.401650       -10.9295
   8   0.0000       0.156880         4.2689
   9   0.0000       0.212200         5.7743
  10   0.0000       0.223453         6.0805
  11   0.0000       0.262188         7.1345
  12   0.0000       0.366490         9.9727

MULLIKEN ATOMIC CHARGES
-----------------------
   0 C :   -0.311827
   1 C :   -0.311827
   2 H :    0.155892
   3 H :    0.155935
   4 H :    0.155935
   5 H :    0.155892
Sum of atomic charges:    0.0000000

LOEWDIN ATOMIC CHARGES
----------------------
   0 C :   -0.260120
   1 C :   -0.260120
   2 H :    0.130056
   3 H :    0.130063
   4 H :    0.130063
   5 H :    0.130057

  Mayer bond orders larger than 0.1
B(  0-C ,  1-C ) :   2.0775 B(  0-C ,  2-H ) :   0.9396 B(  0-C ,  3-H ) :   0.9396
B(  1-C ,  4-H ) :   0.9396 B(  1-C ,  5-H ) :   0.9396

Dispersion correction           -0.000227346
FINAL SINGLE POINT ENERGY       -78.490166027791

DIPOLE MOMENT
-------------
                                X             Y             Z
Electronic contribution:      0.00000      -0.00003       0.00004
Nuclear contribution   :     -0.00000       0.00005      -0.00006
                        -----------------------------------------
Total Dipole Moment    :     -0.00000       0.00002      -0.00002
                        -----------------------------------------
Magnitude (a.u.)       :      0.00002
Magnitude (Debye)      :      0.00006

                             ****ORCA TERMINATED NORMALLY****
TOTAL RUN TIME: 0 days 0 hours 0 minutes 4 seconds 216 msec
