                         Program Version 4.0.0.2 - RELEASE -
|  1> ! WB97X-D3 6-31G(d) VerySlowConv
|  2> ! KDIIS NOSOSCF
|  3> %base "Scan_30"
|  4>
|  5> %scf
|  6> maxiter 999
|  7> end
|  8>
|  9> * xyz 0 1
| 10> C         -2.696076455172    0.990080148995    0.325005074698
| 11> C          0.658345464778    1.560459838707   -0.325000986149
| 12> H         -2.736777886147    0.626604519659   -0.688625956122
| 13> H         -2.744294886589    2.048704805845    0.520473311832
| 14> H          0.706525419000    0.501836487514   -0.520478508814
| 15> H          0.699008344130    1.923944199281    0.688627064555
| 16> **                         ****END OF INPUT****

CARTESIAN COORDINATES (ANGSTROEM)
---------------------------------
  C     -2.696076    0.990080    0.325005
  C      0.658345    1.560460   -0.325001
  H     -2.736778    0.626605   -0.688626
  H     -2.744295    2.048705    0.520473
  H      0.706525    0.501836   -0.520479
  H      0.699008    1.923944    0.688627

 Total Charge           Charge          ....    0
 Multiplicity           Mult            ....    1
 Number of Electrons    NEL             ....   16
 Basis Dimension        Dim             ....   36

ORBITAL ENERGIES
----------------

  NO   OCC          E(Eh)            E(eV)
   0   2.0000     -10.336860      -281.2802
   1   2.0000     -10.336831      -281.2795
   2   2.0000      -0.779598       -21.2139
   3   2.0000      -0.773441       -21.0464
   4   2.0000      -0.542297       -14.7567
   5   2.0000      -0.538193       -14.6450
   6   2.0000      -0.316677        -8.6172
   7   2.0000      -0.310599        -8.4518
   8   0.0000      -0.044374        -1.2075
   9   0.0000      -0.000916        -0.0249
  10   0.0000       0.200630         5.4594
  11   0.0000       0.223171         6.0728
  12   0.0000       0.276128         7.5138

MULLIKEN ATOMIC CHARGES
-----------------------
   0 C :   -0.351696
   1 C :   -0.351698
   2 H :    0.175862
   3 H :    0.175835
   4 H :    0.175836
   5 H :    0.175862
Sum of atomic charges:    0.0000000

LOEWDIN ATOMIC CHARGES
----------------------
   0 C :   -0.255407
   1 C :   -0.255410
   2 H :    0.127762
   3 H :    0.127645
   4 H :    0.127646
   5 H :    0.127763

  Mayer bond orders larger than 0.1
B(  0-C ,  2-H ) :   0.9220 B(  0-C ,  3-H ) :   0.9224 B(  1-C ,  4-H ) :   0.9224
B(  1-C ,  5-H ) :   0.9220

Dispersion correction           -0.000628489
FINAL SINGLE POINT ENERGY       -78.205217539766

DIPOLE MOMENT
-------------
                                X             Y             Z
Electronic contribution:      0.00000      -0.00001       0.00001
Nuclear contribution   :     -0.00006       0.00001      -0.00001
                        -----------------------------------------
Total Dipole Moment    :     -0.00006      -0.00000       0.00000
                        -----------------------------------------
Magnitude (a.u.)       :      0.00006
Magnitude (Debye)      :      0.00016

                             ****ORCA TERMINATED NORMALLY****
TOTAL RUN TIME: 0 days 0 hours 0 minutes 11 seconds 71 msec
