                         Program Version 4.0.0.2 - RELEASE -
|  1> ! WB97X-D3 6-31G(d) VerySlowConv
|  2> ! KDIIS NOSOSCF
|  3> %base "Scan_31"
|  4>
|  5> %scf
|  6> maxiter 999
|  7> end
|  8>
|  9> * xyz 0 1
| 10> C         -2.747891954373    0.986486113043    0.328910118835
| 11> C          0.710091628116    1.564023899243   -0.328871200443
| 12> H         -2.743800128937    0.624342344432   -0.685967076711
| 13> H         -2.751316957846    2.046401328125    0.523097080354
| 14> H          0.713582240487    0.504131569933   -0.523139567932
| 15> H          0.706065172553    1.926244745225    0.685970645896
| 16> **                         ****END OF INPUT****

CARTESIAN COORDINATES (ANGSTROEM)
---------------------------------
  C     -2.747892    0.986486    0.328910
  C      0.710092    1.564024   -0.328871
  H     -2.743800    0.624342   -0.685967
  H     -2.751317    2.046401    0.523097
  H      0.713582    0.504132   -0.523140
  H      0.706065    1.926245    0.685971

 Total Charge           Charge          ....    0
 Multiplicity           Mult            ....    1
 Number of Electrons    NEL             ....   16
 Basis Dimension        Dim             ....   36

ORBITAL ENERGIES
----------------

  NO   OCC          E(Eh)            E(eV)
   0   2.0000     -10.337537      -281.2987
   1   2.0000     -10.337513      -281.2980
   2   2.0000      -0.780366       -21.2348
   3   2.0000      -0.774931       -21.0869
   4   2.0000      -0.543155       -14.7800
   5   2.0000      -0.539443       -14.6790
   6   2.0000      -0.316902        -8.6234
   7   2.0000      -0.311245        -8.4694
   8   0.0000      -0.042142        -1.1467
   9   0.0000      -0.004899        -0.1333
  10   0.0000       0.199694         5.4339
  11   0.0000       0.221745         6.0340
  12   0.0000       0.272961         7.4277

MULLIKEN ATOMIC CHARGES
-----------------------
   0 C :   -0.349409
   1 C :   -0.349429
   2 H :    0.174743
   3 H :    0.174666
   4 H :    0.174676
   5 H :    0.174753
Sum of atomic charges:    0.0000000

LOEWDIN ATOMIC CHARGES
----------------------
   0 C :   -0.254368
   1 C :   -0.254386
   2 H :    0.127275
   3 H :    0.127093
   4 H :    0.127102
   5 H :    0.127284

  Mayer bond orders larger than 0.1
B(  0-C ,  2-H ) :   0.9218 B(  0-C ,  3-H ) :   0.9223 B(  1-C ,  4-H ) :   0.9223
B(  1-C ,  5-H ) :   0.9218

Dispersion correction           -0.000618917
FINAL SINGLE POINT ENERGY       -78.204705409902

DIPOLE MOMENT
-------------
                                X             Y             Z
Electronic contribution:     -0.00001      -0.00006       0.00007
Nuclear contribution   :      0.00011       0.00008      -0.00009
                        -----------------------------------------
Total Dipole Moment    :      0.00010       0.00002      -0.00002
                        -----------------------------------------
Magnitude (a.u.)       :      0.00010
Magnitude (Debye)      :      0.00026

                             ****ORCA TERMINATED NORMALLY****
TOTAL RUN TIME: 0 days 0 hours 0 minutes 11 seconds 430 msec
