                         Program Version 4.0.0.2 - RELEASE -
|  1> ! WB97X-D3 6-31G(d) VerySlowConv
|  2> ! KDIIS NOSOSCF
|  3> %base "Scan_32"
|  4>
|  5> %scf
|  6> maxiter 999
|  7> end
|  8>
|  9> * xyz 0 1
| 10> C         -2.800144595187    0.984581706881    0.330825157570
| 11> C          0.762409037792    1.565958925934   -0.330821856391
| 12> H         -2.754676418428    0.621251821091   -0.682508031916
| 13> H         -2.762193819228    2.043417697705    0.526647008511
| 14> H          0.724426579297    0.507126009543   -0.526649479994
| 15> H          0.716909215753    1.929293838845    0.682507202220
| 16> **                         ****END OF INPUT****

CARTESIAN COORDINATES (ANGSTROEM)
---------------------------------
  C     -2.800145    0.984582    0.330825
  C      0.762409    1.565959   -0.330822
  H     -2.754676    0.621252   -0.682508
  H     -2.762194    2.043418    0.526647
  H      0.724427    0.507126   -0.526649
  H      0.716909    1.929294    0.682507

 Total Charge           Charge          ....    0
 Multiplicity           Mult            ....    1
 Number of Electrons    NEL             ....   16
 Basis Dimension        Dim             ....   36

ORBITAL ENERGIES
----------------

  NO   OCC          E(Eh)            E(eV)
   0   2.0000     -10.338085      -281.3136
   1   2.0000     -10.338066      -281.3131
   2   2.0000      -0.780798       -21.2466
   3   2.0000      -0.776018       -21.1165
   4   2.0000      -0.543732       -14.7957
   5   2.0000      -0.540396       -14.7049
   6   2.0000      -0.316641        -8.6162
   7   2.0000      -0.312000        -8.4900
   8   0.0000      -0.039847        -1.0843
   9   0.0000      -0.008392        -0.2283
  10   0.0000       0.199104         5.4179
  11   0.0000       0.220561         6.0018
  12   0.0000       0.270131         7.3506

MULLIKEN ATOMIC CHARGES
-----------------------
   0 C :   -0.347469
   1 C :   -0.347471
   2 H :    0.173776
   3 H :    0.173693
   4 H :    0.173694
   5 H :    0.173777
Sum of atomic charges:    0.0000000

LOEWDIN ATOMIC CHARGES
----------------------
   0 C :   -0.253586
   1 C :   -0.253587
   2 H :    0.126870
   3 H :    0.126716
   4 H :    0.126717
   5 H :    0.126871

  Mayer bond orders larger than 0.1
B(  0-C ,  2-H ) :   0.9217 B(  0-C ,  3-H ) :   0.9222 B(  1-C ,  4-H ) :   0.9222
B(  1-C ,  5-H ) :   0.9217

Dispersion correction           -0.000601514
FINAL SINGLE POINT ENERGY       -78.204467670074

DIPOLE MOMENT
-------------
                                X             Y             Z
Electronic contribution:      0.00001      -0.00000       0.00001
Nuclear contribution   :     -0.00005       0.00001      -0.00001
                        -----------------------------------------
Total Dipole Moment    :     -0.00004       0.00000      -0.00000
                        -----------------------------------------
Magnitude (a.u.)       :      0.00005
Magnitude (Debye)      :      0.00011

                             ****ORCA TERMINATED NORMALLY****
TOTAL RUN TIME: 0 days 0 hours 0 minutes 10 seconds 388 msec
