                         Program Version 4.0.0.2 - RELEASE -
|  1> ! WB97X-D3 6-31G(d) VerySlowConv
|  2> ! KDIIS NOSOSCF
|  3> %base "Scan_33"
|  4>
|  5> %scf
|  6> maxiter 999
|  7> end
|  8>
|  9> * xyz 0 1
| 10> C         -2.852764992434    0.983915865389    0.331281151366
| 11> C          0.815038040572    1.566624737166   -0.331277758681
| 12> H         -2.769428832647    0.617608006338   -0.678459207007
| 13> H         -2.776947003203    2.039917174127    0.530817662263
| 14> H          0.739175434279    0.510627505939   -0.530819364397
| 15> H          0.731657353433    1.932936711041    0.678457516457
| 16> **                         ****END OF INPUT****

CARTESIAN COORDINATES (ANGSTROEM)
---------------------------------
  C     -2.852765    0.983916    0.331281
  C      0.815038    1.566625   -0.331278
  H     -2.769429    0.617608   -0.678459
  H     -2.776947    2.039917    0.530818
  H      0.739175    0.510628   -0.530819
  H      0.731657    1.932937    0.678458

 Total Charge           Charge          ....    0
 Multiplicity           Mult            ....    1
 Number of Electrons    NEL             ....   16
 Basis Dimension        Dim             ....   36

ORBITAL ENERGIES
----------------

  NO   OCC          E(Eh)            E(eV)
   0   2.0000     -10.338490      -281.3246
   1   2.0000     -10.338475      -281.3242
   2   2.0000      -0.781004       -21.2522
   3   2.0000      -0.776814       -21.1382
   4   2.0000      -0.544082       -14.8052
   5   2.0000      -0.541112       -14.7244
   6   2.0000      -0.316134        -8.6024
   7   2.0000      -0.312703        -8.5091
   8   0.0000      -0.037704        -1.0260
   9   0.0000      -0.011391        -0.3100
  10   0.0000       0.198770         5.4088
  11   0.0000       0.219563         5.9746
  12   0.0000       0.267730         7.2853

MULLIKEN ATOMIC CHARGES
-----------------------
   0 C :   -0.345937
   1 C :   -0.345937
   2 H :    0.172999
   3 H :    0.172938
   4 H :    0.172938
   5 H :    0.172999
Sum of atomic charges:   -0.0000000

LOEWDIN ATOMIC CHARGES
----------------------
   0 C :   -0.252969
   1 C :   -0.252969
   2 H :    0.126518
   3 H :    0.126451
   4 H :    0.126452
   5 H :    0.126518

  Mayer bond orders larger than 0.1
B(  0-C ,  2-H ) :   0.9216 B(  0-C ,  3-H ) :   0.9221 B(  1-C ,  4-H ) :   0.9221
B(  1-C ,  5-H ) :   0.9216

Dispersion correction           -0.000577135
FINAL SINGLE POINT ENERGY       -78.204345678656

DIPOLE MOMENT
-------------
                                X             Y             Z
Electronic contribution:      0.00001      -0.00000       0.00000
Nuclear contribution   :     -0.00007       0.00001      -0.00001
                        -----------------------------------------
Total Dipole Moment    :     -0.00006       0.00001      -0.00001
                        -----------------------------------------
Magnitude (a.u.)       :      0.00006
Magnitude (Debye)      :      0.00016

                             ****ORCA TERMINATED NORMALLY****
TOTAL RUN TIME: 0 days 0 hours 0 minutes 10 seconds 596 msec
