                         Program Version 4.0.0.2 - RELEASE -
|  1> ! WB97X-D3 6-31G(d) VerySlowConv
|  2> ! KDIIS NOSOSCF
|  3> %base "Scan_34"
|  4>
|  5> %scf
|  6> maxiter 999
|  7> end
|  8>
|  9> * xyz 0 1
| 10> C         -2.905322521508    0.984008828023    0.330845056913
| 11> C          0.867611905625    1.566528795346   -0.330838067268
| 12> H         -2.794105390236    0.613543971233   -0.674648702950
| 13> H         -2.801627757875    2.036658552167    0.535312958797
| 14> H          0.763848082646    0.513887666624   -0.535316404899
| 15> H          0.756325681348    1.937002186607    0.674645159406
| 16> **                         ****END OF INPUT****

CARTESIAN COORDINATES (ANGSTROEM)
---------------------------------
  C     -2.905323    0.984009    0.330845
  C      0.867612    1.566529   -0.330838
  H     -2.794105    0.613544   -0.674649
  H     -2.801628    2.036659    0.535313
  H      0.763848    0.513888   -0.535316
  H      0.756326    1.937002    0.674645

 Total Charge           Charge          ....    0
 Multiplicity           Mult            ....    1
 Number of Electrons    NEL             ....   16
 Basis Dimension        Dim             ....   36

ORBITAL ENERGIES
----------------

  NO   OCC          E(Eh)            E(eV)
   0   2.0000     -10.338637      -281.3286
   1   2.0000     -10.338625      -281.3283
   2   2.0000      -0.780804       -21.2467
   3   2.0000      -0.777222       -21.1493
   4   2.0000      -0.544201       -14.8085
   5   2.0000      -0.541621       -14.7383
   6   2.0000      -0.315429        -8.5833
   7   2.0000      -0.313062        -8.5189
   8   0.0000      -0.035592        -0.9685
   9   0.0000      -0.013641        -0.3712
  10   0.0000       0.198873         5.4116
  11   0.0000       0.218577         5.9478
  12   0.0000       0.266356         7.2479

MULLIKEN ATOMIC CHARGES
-----------------------
   0 C :   -0.344836
   1 C :   -0.344836
   2 H :    0.172436
   3 H :    0.172399
   4 H :    0.172400
   5 H :    0.172437
Sum of atomic charges:   -0.0000000

LOEWDIN ATOMIC CHARGES
----------------------
   0 C :   -0.252616
   1 C :   -0.252615
   2 H :    0.126296
   3 H :    0.126320
   4 H :    0.126320
   5 H :    0.126296

  Mayer bond orders larger than 0.1
B(  0-C ,  2-H ) :   0.9216 B(  0-C ,  3-H ) :   0.9221 B(  1-C ,  4-H ) :   0.9221
B(  1-C ,  5-H ) :   0.9216

Dispersion correction           -0.000543945
FINAL SINGLE POINT ENERGY       -78.204152994383

DIPOLE MOMENT
-------------
                                X             Y             Z
Electronic contribution:      0.00001      -0.00000       0.00000
Nuclear contribution   :     -0.00011       0.00001      -0.00002
                        -----------------------------------------
Total Dipole Moment    :     -0.00010       0.00001      -0.00002
                        -----------------------------------------
Magnitude (a.u.)       :      0.00010
Magnitude (Debye)      :      0.00025

                             ****ORCA TERMINATED NORMALLY****
TOTAL RUN TIME: 0 days 0 hours 0 minutes 9 seconds 683 msec
