                         Program Version 4.0.0.2 - RELEASE -
|  1> ! WB97X-D3 6-31G(d) VerySlowConv
|  2> ! KDIIS NOSOSCF
|  3> %base "Scan_35"
|  4>
|  5> %scf
|  6> maxiter 999
|  7> end
|  8>
|  9> * xyz 0 1
| 10> C         -2.956692547677    0.981510276511    0.333464399562
| 11> C          0.919152010345    1.569002952824   -0.333427656554
| 12> H         -2.845115837615    0.612283272330   -0.673078671168
| 13> H         -2.852636088524    2.034998748518    0.536543660963
| 14> H          0.814771384452    0.515558946245   -0.536562599817
| 15> H          0.807251079020    1.938275803571    0.673060867013
| 16> **                         ****END OF INPUT****

CARTESIAN COORDINATES (ANGSTROEM)
---------------------------------
  C     -2.956693    0.981510    0.333464
  C      0.919152    1.569003   -0.333428
  H     -2.845116    0.612283   -0.673079
  H     -2.852636    2.034999    0.536544
  H      0.814771    0.515559   -0.536563
  H      0.807251    1.938276    0.673061

 Total Charge           Charge          ....    0
 Multiplicity           Mult            ....    1
 Number of Electrons    NEL             ....   16
 Basis Dimension        Dim             ....   36

ORBITAL ENERGIES
----------------

  NO   OCC          E(Eh)            E(eV)
   0   2.0000     -10.338460      -281.3238
   1   2.0000     -10.338450      -281.3235
   2   2.0000      -0.780017       -21.2253
   3   2.0000      -0.777146       -21.1472
   4   2.0000      -0.543247       -14.7825
   5   2.0000      -0.541157       -14.7256
   6   2.0000      -0.315096        -8.5742
   7   2.0000      -0.313209        -8.5229
   8   0.0000      -0.033703        -0.9171
   9   0.0000      -0.014642        -0.3984
  10   0.0000       0.200247         5.4490
  11   0.0000       0.217394         5.9156
  12   0.0000       0.267114         7.2685

MULLIKEN ATOMIC CHARGES
-----------------------
   0 C :   -0.343790
   1 C :   -0.343787
   2 H :    0.171914
   3 H :    0.171874
   4 H :    0.171874
   5 H :    0.171915
Sum of atomic charges:    0.0000000

LOEWDIN ATOMIC CHARGES
----------------------
   0 C :   -0.252042
   1 C :   -0.252039
   2 H :    0.126010
   3 H :    0.126030
   4 H :    0.126032
   5 H :    0.126010

  Mayer bond orders larger than 0.1
B(  0-C ,  2-H ) :   0.9218 B(  0-C ,  3-H ) :   0.9223 B(  1-C ,  4-H ) :   0.9223
B(  1-C ,  5-H ) :   0.9218

Dispersion correction           -0.000494881
FINAL SINGLE POINT ENERGY       -78.204451499477

DIPOLE MOMENT
-------------
                                X             Y             Z
Electronic contribution:      0.00006      -0.00002       0.00002
Nuclear contribution   :     -0.00052       0.00007      -0.00009
                        -----------------------------------------
Total Dipole Moment    :     -0.00046       0.00006      -0.00007
                        -----------------------------------------
Magnitude (a.u.)       :      0.00047
Magnitude (Debye)      :      0.00119

                             ****ORCA TERMINATED NORMALLY****
TOTAL RUN TIME: 0 days 0 hours 0 minutes 9 seconds 540 msec
