                         Program Version 4.0.0.2 - RELEASE -
|  1> ! WB97X-D3 6-31G(d) VerySlowConv
|  2> ! KDIIS NOSOSCF
|  3> %base "Scan_36"
|  4>
|  5> %scf
|  6> maxiter 999
|  7> end
|  8>
|  9> * xyz 0 1
| 10> C         -3.009758861741    0.982593744869    0.331860145494
| 11> C          0.972325416725    1.567898679900   -0.331798263569
| 12> H         -2.872928435519    0.607783542859   -0.668762931734
| 13> H         -2.880452869623    2.031292313167    0.541533874851
| 14> H          0.842534620955    0.519276995188   -0.541564352862
| 15> H          0.835010129202    1.942784724017    0.668731527820
| 16> **                         ****END OF INPUT****

CARTESIAN COORDINATES (ANGSTROEM)
---------------------------------
  C     -3.009759    0.982594    0.331860
  C      0.972325    1.567899   -0.331798
  H     -2.872928    0.607784   -0.668763
  H     -2.880453    2.031292    0.541534
  H      0.842535    0.519277   -0.541564
  H      0.835010    1.942785    0.668732

 Total Charge           Charge          ....    0
 Multiplicity           Mult            ....    1
 Number of Electrons    NEL             ....   16
 Basis Dimension        Dim             ....   36

ORBITAL ENERGIES
----------------

  NO   OCC          E(Eh)            E(eV)
   0   2.0000     -10.338359      -281.3211
   1   2.0000     -10.338351      -281.3208
   2   2.0000      -0.779901       -21.2222
   3   2.0000      -0.777466       -21.1559
   4   2.0000      -0.543629       -14.7929
   5   2.0000      -0.541830       -14.7439
   6   2.0000      -0.314333        -8.5534
   7   2.0000      -0.313209        -8.5229
   8   0.0000      -0.031952        -0.8695
   9   0.0000      -0.016255        -0.4423
  10   0.0000       0.200546         5.4571
  11   0.0000       0.216743         5.8979
  12   0.0000       0.266505         7.2520

MULLIKEN ATOMIC CHARGES
-----------------------
   0 C :   -0.343297
   1 C :   -0.343294
   2 H :    0.171652
   3 H :    0.171642
   4 H :    0.171644
   5 H :    0.171654
Sum of atomic charges:   -0.0000000

LOEWDIN ATOMIC CHARGES
----------------------
   0 C :   -0.251989
   1 C :   -0.251983
   2 H :    0.125933
   3 H :    0.126052
   4 H :    0.126054
   5 H :    0.125933

  Mayer bond orders larger than 0.1
B(  0-C ,  2-H ) :   0.9218 B(  0-C ,  3-H ) :   0.9223 B(  1-C ,  4-H ) :   0.9223
B(  1-C ,  5-H ) :   0.9218

Dispersion correction           -0.000458727
FINAL SINGLE POINT ENERGY       -78.203996421955

DIPOLE MOMENT
-------------
                                X             Y             Z
Electronic contribution:      0.00008      -0.00001       0.00001
Nuclear contribution   :     -0.00078       0.00012      -0.00015
                        -----------------------------------------
Total Dipole Moment    :     -0.00069       0.00011      -0.00014
                        -----------------------------------------
Magnitude (a.u.)       :      0.00072
Magnitude (Debye)      :      0.00182

                             ****ORCA TERMINATED NORMALLY****
TOTAL RUN TIME: 0 days 0 hours 0 minutes 3 seconds 662 msec
