                         Program Version 4.0.0.2 - RELEASE -
|  1> ! WB97X-D3 6-31G(d) VerySlowConv
|  2> ! KDIIS NOSOSCF
|  3> %base "Scan_37"
|  4>
|  5> %scf
|  6> maxiter 999
|  7> end
|  8>
|  9> * xyz 0 1
| 10> C         -3.060486374208    0.979607224369    0.335057416836
| 11> C          1.024003871961    1.570719142324   -0.334794308306
| 12> H         -2.926887668059    0.606891515266   -0.667514424902
| 13> H         -2.934409330837    2.029872466359    0.542333602962
| 14> H          0.896015633465    0.520774853601   -0.542468977185
| 15> H          0.888493867678    1.943764798082    0.667386690595
| 16> **                         ****END OF INPUT****

CARTESIAN COORDINATES (ANGSTROEM)
---------------------------------
  C     -3.060486    0.979607    0.335057
  C      1.024004    1.570719   -0.334794
  H     -2.926888    0.606892   -0.667514
  H     -2.934409    2.029872    0.542334
  H      0.896016    0.520775   -0.542469
  H      0.888494    1.943765    0.667387

 Total Charge           Charge          ....    0
 Multiplicity           Mult            ....    1
 Number of Electrons    NEL             ....   16
 Basis Dimension        Dim             ....   36

ORBITAL ENERGIES
----------------

  NO   OCC          E(Eh)            E(eV)
   0   2.0000     -10.338196      -281.3166
   1   2.0000     -10.338183      -281.3163
   2   2.0000      -0.779220       -21.2036
   3   2.0000      -0.777274       -21.1507
   4   2.0000      -0.542675       -14.7669
   5   2.0000      -0.541229       -14.7276
   6   2.0000      -0.314177        -8.5492
   7   2.0000      -0.313276        -8.5247
   8   0.0000      -0.030496        -0.8298
   9   0.0000      -0.016863        -0.4589
  10   0.0000       0.201899         5.4940
  11   0.0000       0.215725         5.8702
  12   0.0000       0.267539         7.2801

MULLIKEN ATOMIC CHARGES
-----------------------
   0 C :   -0.342412
   1 C :   -0.342423
   2 H :    0.171216
   3 H :    0.171187
   4 H :    0.171202
   5 H :    0.171229
Sum of atomic charges:   -0.0000000

LOEWDIN ATOMIC CHARGES
----------------------
   0 C :   -0.251472
   1 C :   -0.251466
   2 H :    0.125682
   3 H :    0.125782
   4 H :    0.125791
   5 H :    0.125684

  Mayer bond orders larger than 0.1
B(  0-C ,  2-H ) :   0.9220 B(  0-C ,  3-H ) :   0.9225 B(  1-C ,  4-H ) :   0.9225
B(  1-C ,  5-H ) :   0.9220

Dispersion correction           -0.000411274
FINAL SINGLE POINT ENERGY       -78.204352967387

DIPOLE MOMENT
-------------
                                X             Y             Z
Electronic contribution:      0.00031      -0.00010       0.00010
Nuclear contribution   :     -0.00307       0.00052      -0.00063
                        -----------------------------------------
Total Dipole Moment    :     -0.00276       0.00042      -0.00054
                        -----------------------------------------
Magnitude (a.u.)       :      0.00285
Magnitude (Debye)      :      0.00724

                             ****ORCA TERMINATED NORMALLY****
TOTAL RUN TIME: 0 days 0 hours 0 minutes 3 seconds 692 msec
