                         Program Version 4.0.0.2 - RELEASE -
|  1> ! WB97X-D3 6-31G(d) VerySlowConv
|  2> ! KDIIS NOSOSCF
|  3> %base "Scan_38"
|  4>
|  5> %scf
|  6> maxiter 999
|  7> end
|  8>
|  9> * xyz 0 1
| 10> C         -3.110544786932    0.977506058689    0.337217523324
| 11> C          1.077565473331    1.572233986791   -0.336243015749
| 12> H         -2.980303621222    0.605103932725   -0.665902049633
| 13> H         -2.987826135969    2.028240860301    0.544078572832
| 14> H          0.947680874036    0.522689509120   -0.544578262744
| 15> H          0.940158196755    1.945855652374    0.665427231970
| 16> **                         ****END OF INPUT****

CARTESIAN COORDINATES (ANGSTROEM)
---------------------------------
  C     -3.110545    0.977506    0.337218
  C      1.077565    1.572234   -0.336243
  H     -2.980304    0.605104   -0.665902
  H     -2.987826    2.028241    0.544079
  H      0.947681    0.522690   -0.544578
  H      0.940158    1.945856    0.665427

 Total Charge           Charge          ....    0
 Multiplicity           Mult            ....    1
 Number of Electrons    NEL             ....   16
 Basis Dimension        Dim             ....   36

ORBITAL ENERGIES
----------------

  NO   OCC          E(Eh)            E(eV)
   0   2.0000     -10.337878      -281.3080
   1   2.0000     -10.337821      -281.3064
   2   2.0000      -0.778659       -21.1884
   3   2.0000      -0.777102       -21.1460
   4   2.0000      -0.542248       -14.7553
   5   2.0000      -0.541080       -14.7235
   6   2.0000      -0.313736        -8.5372
   7   2.0000      -0.313039        -8.5182
   8   0.0000      -0.029106        -0.7920
   9   0.0000      -0.017412        -0.4738
  10   0.0000       0.203125         5.5273
  11   0.0000       0.214953         5.8492
  12   0.0000       0.268630         7.3098

MULLIKEN ATOMIC CHARGES
-----------------------
   0 C :   -0.342107
   1 C :   -0.342151
   2 H :    0.171061
   3 H :    0.171024
   4 H :    0.171073
   5 H :    0.171101
Sum of atomic charges:   -0.0000000

LOEWDIN ATOMIC CHARGES
----------------------
   0 C :   -0.251390
   1 C :   -0.251380
   2 H :    0.125641
   3 H :    0.125726
   4 H :    0.125758
   5 H :    0.125645

  Mayer bond orders larger than 0.1
B(  0-C ,  2-H ) :   0.9221 B(  0-C ,  3-H ) :   0.9226 B(  1-C ,  4-H ) :   0.9226
B(  1-C ,  5-H ) :   0.9221

Dispersion correction           -0.000367667
FINAL SINGLE POINT ENERGY       -78.204296318035

DIPOLE MOMENT
-------------
                                X             Y             Z
Electronic contribution:      0.00111      -0.00038       0.00037
Nuclear contribution   :     -0.01151       0.00194      -0.00235
                        -----------------------------------------
Total Dipole Moment    :     -0.01041       0.00156      -0.00198
                        -----------------------------------------
Magnitude (a.u.)       :      0.01071
Magnitude (Debye)      :      0.02721

                             ****ORCA TERMINATED NORMALLY****
TOTAL RUN TIME: 0 days 0 hours 0 minutes 3 seconds 482 msec
