                         Program Version 4.0.0.2 - RELEASE -
|  1> ! WB97X-D3 6-31G(d) VerySlowConv
|  2> ! KDIIS NOSOSCF
|  3> %base "Scan_39"
|  4>
|  5> %scf
|  6> maxiter 999
|  7> end
|  8>
|  9> * xyz 0 1
| 10> C         -3.162742525339    0.978893522821    0.335261124679
| 11> C          1.131523883174    1.570422289002   -0.333776701437
| 12> H         -3.009035746972    0.600549248662   -0.661500243529
| 13> H         -3.016562332188    2.024452680908    0.549132077064
| 14> H          0.975536611891    0.526712758842   -0.549867210085
| 15> H          0.968010109434    1.950599499764    0.660750953308
| 16> **                         ****END OF INPUT****

CARTESIAN COORDINATES (ANGSTROEM)
---------------------------------
  C     -3.162743    0.978894    0.335261
  C      1.131524    1.570422   -0.333777
  H     -3.009036    0.600549   -0.661500
  H     -3.016562    2.024453    0.549132
  H      0.975537    0.526713   -0.549867
  H      0.968010    1.950599    0.660751

 Total Charge           Charge          ....    0
 Multiplicity           Mult            ....    1
 Number of Electrons    NEL             ....   16
 Basis Dimension        Dim             ....   36

ORBITAL ENERGIES
----------------

  NO   OCC          E(Eh)            E(eV)
   0   2.0000     -10.337744      -281.3043
   1   2.0000     -10.337706      -281.3033
   2   2.0000      -0.778635       -21.1877
   3   2.0000      -0.777319       -21.1519
   4   2.0000      -0.542680       -14.7671
   5   2.0000      -0.541675       -14.7397
   6   2.0000      -0.313142        -8.5210
   7   2.0000      -0.312873        -8.5137
   8   0.0000      -0.027919        -0.7597
   9   0.0000      -0.018490        -0.5031
  10   0.0000       0.203418         5.5353
  11   0.0000       0.214545         5.8381
  12   0.0000       0.268512         7.3066

MULLIKEN ATOMIC CHARGES
-----------------------
   0 C :   -0.342033
   1 C :   -0.342046
   2 H :    0.171007
   3 H :    0.171001
   4 H :    0.171041
   5 H :    0.171031
Sum of atomic charges:   -0.0000000

LOEWDIN ATOMIC CHARGES
----------------------
   0 C :   -0.251482
   1 C :   -0.251416
   2 H :    0.125638
   3 H :    0.125819
   4 H :    0.125832
   5 H :    0.125610

  Mayer bond orders larger than 0.1
B(  0-C ,  2-H ) :   0.9221 B(  0-C ,  3-H ) :   0.9226 B(  1-C ,  4-H ) :   0.9226
B(  1-C ,  5-H ) :   0.9221

Dispersion correction           -0.000336784
FINAL SINGLE POINT ENERGY       -78.203825701201

DIPOLE MOMENT
-------------
                                X             Y             Z
Electronic contribution:      0.00156      -0.00034       0.00031
Nuclear contribution   :     -0.01576       0.00296      -0.00358
                        -----------------------------------------
Total Dipole Moment    :     -0.01420       0.00262      -0.00327
                        -----------------------------------------
Magnitude (a.u.)       :      0.01480
Magnitude (Debye)      :      0.03762

                             ****ORCA TERMINATED NORMALLY****
TOTAL RUN TIME: 0 days 0 hours 0 minutes 3 seconds 308 msec
