                         Program Version 4.0.0.2 - RELEASE -
|  1> ! WB97X-D3 6-31G(d) VerySlowConv
|  2> ! KDIIS NOSOSCF
|  3> %base "Scan_4"
|  4>
|  5> %scf
|  6> maxiter 999
|  7> end
|  8>
|  9> * xyz 0 1
| 10> C         -1.596078380322    1.271862762940    0.000749227504
| 11> C         -0.441677899456    1.278615586945   -0.000672792943
| 12> H         -2.209893901197    0.584868382226   -0.581891273444
| 13> H         -2.217395447860    1.953378670887    0.581645895465
| 14> H          0.179638585397    0.597197124767   -0.581683974404
| 15> H          0.172137043439    1.965707472234    0.581852917823
| 16> **                         ****END OF INPUT****

CARTESIAN COORDINATES (ANGSTROEM)
---------------------------------
  C     -1.596078    1.271863    0.000749
  C     -0.441678    1.278616   -0.000673
  H     -2.209894    0.584868   -0.581891
  H     -2.217395    1.953379    0.581646
  H      0.179639    0.597197   -0.581684
  H      0.172137    1.965707    0.581853

 Total Charge           Charge          ....    0
 Multiplicity           Mult            ....    1
 Number of Electrons    NEL             ....   16
 Basis Dimension        Dim             ....   36

ORBITAL ENERGIES
----------------

  NO   OCC          E(Eh)            E(eV)
   0   2.0000     -10.254236      -279.0319
   1   2.0000     -10.250692      -278.9355
   2   2.0000      -0.909508       -24.7490
   3   2.0000      -0.671266       -18.2661
   4   2.0000      -0.579218       -15.7613
   5   2.0000      -0.538923       -14.6648
   6   2.0000      -0.412141       -11.2149
   7   2.0000      -0.396032       -10.7766
   8   0.0000       0.150490         4.0950
   9   0.0000       0.215736         5.8705
  10   0.0000       0.223113         6.0712
  11   0.0000       0.262024         7.1300
  12   0.0000       0.363872         9.9015

MULLIKEN ATOMIC CHARGES
-----------------------
   0 C :   -0.315071
   1 C :   -0.315071
   2 H :    0.157458
   3 H :    0.157613
   4 H :    0.157613
   5 H :    0.157458
Sum of atomic charges:   -0.0000000

LOEWDIN ATOMIC CHARGES
----------------------
   0 C :   -0.261639
   1 C :   -0.261639
   2 H :    0.130791
   3 H :    0.130848
   4 H :    0.130848
   5 H :    0.130791

  Mayer bond orders larger than 0.1
B(  0-C ,  1-C ) :   2.0678 B(  0-C ,  2-H ) :   0.9414 B(  0-C ,  3-H ) :   0.9413
B(  1-C ,  4-H ) :   0.9413 B(  1-C ,  5-H ) :   0.9414

Dispersion correction           -0.000230315
FINAL SINGLE POINT ENERGY       -78.507266192482

DIPOLE MOMENT
-------------
                                X             Y             Z
Electronic contribution:      0.00000      -0.00011       0.00013
Nuclear contribution   :     -0.00000       0.00016      -0.00018
                        -----------------------------------------
Total Dipole Moment    :     -0.00000       0.00005      -0.00006
                        -----------------------------------------
Magnitude (a.u.)       :      0.00008
Magnitude (Debye)      :      0.00019

                             ****ORCA TERMINATED NORMALLY****
TOTAL RUN TIME: 0 days 0 hours 0 minutes 15 seconds 129 msec
