                         Program Version 4.0.0.2 - RELEASE -
|  1> ! WB97X-D3 6-31G(d) VerySlowConv
|  2> ! KDIIS NOSOSCF
|  3> %base "Scan_40"
|  4>
|  5> %scf
|  6> maxiter 999
|  7> end
|  8>
|  9> * xyz 0 1
| 10> C         -3.203647762914    0.972921305940    0.342031124906
| 11> C          1.192051871269    1.572673220148   -0.336047859402
| 12> H         -3.076684882281    0.601592633393   -0.662136178061
| 13> H         -3.084206130079    2.024497413402    0.547647074572
| 14> H          1.033369872327    0.528377783108   -0.550759907508
| 15> H          1.025847031679    1.951567644008    0.659265745493
| 16> **                         ****END OF INPUT****

CARTESIAN COORDINATES (ANGSTROEM)
---------------------------------
  C     -3.203648    0.972921    0.342031
  C      1.192052    1.572673   -0.336048
  H     -3.076685    0.601593   -0.662136
  H     -3.084206    2.024497    0.547647
  H      1.033370    0.528378   -0.550760
  H      1.025847    1.951568    0.659266

 Total Charge           Charge          ....    0
 Multiplicity           Mult            ....    1
 Number of Electrons    NEL             ....   16
 Basis Dimension        Dim             ....   36

ORBITAL ENERGIES
----------------

  NO   OCC          E(Eh)            E(eV)
   0   2.0000     -10.337674      -281.3024
   1   2.0000     -10.337351      -281.2936
   2   2.0000      -0.777998       -21.1704
   3   2.0000      -0.776937       -21.1415
   4   2.0000      -0.541595       -14.7376
   5   2.0000      -0.540798       -14.7159
   6   2.0000      -0.313315        -8.5257
   7   2.0000      -0.312729        -8.5098
   8   0.0000      -0.026798        -0.7292
   9   0.0000      -0.018622        -0.5067
  10   0.0000       0.204845         5.5741
  11   0.0000       0.213773         5.8171
  12   0.0000       0.269892         7.3441

MULLIKEN ATOMIC CHARGES
-----------------------
   0 C :   -0.341172
   1 C :   -0.341551
   2 H :    0.170576
   3 H :    0.170529
   4 H :    0.170810
   5 H :    0.170808
Sum of atomic charges:   -0.0000000

LOEWDIN ATOMIC CHARGES
----------------------
   0 C :   -0.250961
   1 C :   -0.251008
   2 H :    0.125412
   3 H :    0.125481
   4 H :    0.125651
   5 H :    0.125424

  Mayer bond orders larger than 0.1
B(  0-C ,  2-H ) :   0.9223 B(  0-C ,  3-H ) :   0.9228 B(  1-C ,  4-H ) :   0.9227
B(  1-C ,  5-H ) :   0.9222

Dispersion correction           -0.000296241
FINAL SINGLE POINT ENERGY       -78.204316681205

DIPOLE MOMENT
-------------
                                X             Y             Z
Electronic contribution:      0.00577      -0.00239       0.00243
Nuclear contribution   :     -0.06305       0.01193      -0.01442
                        -----------------------------------------
Total Dipole Moment    :     -0.05728       0.00954      -0.01199
                        -----------------------------------------
Magnitude (a.u.)       :      0.05929
Magnitude (Debye)      :      0.15070

                             ****ORCA TERMINATED NORMALLY****
TOTAL RUN TIME: 0 days 0 hours 0 minutes 3 seconds 720 msec
