                         Program Version 4.0.0.2 - RELEASE -
|  1> ! WB97X-D3 6-31G(d) VerySlowConv
|  2> ! KDIIS NOSOSCF
|  3> %base "Scan_41"
|  4>
|  5> %scf
|  6> maxiter 999
|  7> end
|  8>
|  9> * xyz 0 1
| 10> C         -3.209509686951    0.968718893736    0.346937442455
| 11> C          1.287985844963    1.578793899403   -0.342650307565
| 12> H         -3.270214360218    0.603505934703   -0.665061339537
| 13> H         -3.277732544434    2.025889299437    0.544278415538
| 14> H          1.181861403820    0.525868256981   -0.546678122766
| 15> H          1.174339342820    1.948853715741    0.663173911874
| 16> **                         ****END OF INPUT****

CARTESIAN COORDINATES (ANGSTROEM)
---------------------------------
  C     -3.209510    0.968719    0.346937
  C      1.287986    1.578794   -0.342650
  H     -3.270214    0.603506   -0.665061
  H     -3.277733    2.025889    0.544278
  H      1.181861    0.525868   -0.546678
  H      1.174339    1.948854    0.663174

 Total Charge           Charge          ....    0
 Multiplicity           Mult            ....    1
 Number of Electrons    NEL             ....   16
 Basis Dimension        Dim             ....   36

ORBITAL ENERGIES
----------------

  NO   OCC          E(Eh)            E(eV)
   0   2.0000     -10.336558      -281.2721
   1   2.0000     -10.334193      -281.2077
   2   2.0000      -0.776545       -21.1309
   3   2.0000      -0.773979       -21.0610
   4   2.0000      -0.540371       -14.7042
   5   2.0000      -0.537969       -14.6389
   6   2.0000      -0.312768        -8.5109
   7   2.0000      -0.310081        -8.4377
   8   0.0000      -0.024654        -0.6709
   9   0.0000      -0.016363        -0.4453
  10   0.0000       0.209165         5.6917
  11   0.0000       0.214199         5.8287
  12   0.0000       0.275359         7.4929

MULLIKEN ATOMIC CHARGES
-----------------------
   0 C :   -0.342769
   1 C :   -0.343190
   2 H :    0.171391
   3 H :    0.171336
   4 H :    0.171581
   5 H :    0.171650
Sum of atomic charges:   -0.0000000

LOEWDIN ATOMIC CHARGES
----------------------
   0 C :   -0.251753
   1 C :   -0.251990
   2 H :    0.125904
   3 H :    0.125811
   4 H :    0.126022
   5 H :    0.126006

  Mayer bond orders larger than 0.1
B(  0-C ,  2-H ) :   0.9227 B(  0-C ,  3-H ) :   0.9231 B(  1-C ,  4-H ) :   0.9231
B(  1-C ,  5-H ) :   0.9226

Dispersion correction           -0.000233511
FINAL SINGLE POINT ENERGY       -78.204589551219

DIPOLE MOMENT
-------------
                                X             Y             Z
Electronic contribution:      0.03295      -0.00407       0.00464
Nuclear contribution   :     -0.28012       0.00730      -0.01033
                        -----------------------------------------
Total Dipole Moment    :     -0.24717       0.00324      -0.00570
                        -----------------------------------------
Magnitude (a.u.)       :      0.24726
Magnitude (Debye)      :      0.62849

                             ****ORCA TERMINATED NORMALLY****
TOTAL RUN TIME: 0 days 0 hours 0 minutes 3 seconds 626 msec
