                         Program Version 4.0.0.2 - RELEASE -
|  1> ! WB97X-D3 6-31G(d) VerySlowConv
|  2> ! KDIIS NOSOSCF
|  3> %base "Scan_42"
|  4>
|  5> %scf
|  6> maxiter 999
|  7> end
|  8>
|  9> * xyz 0 1
| 10> C         -3.258249972374    0.965621147058    0.350277889259
| 11> C          1.344070576046    1.575444960119   -0.338362709866
| 12> H         -3.282377198995    0.601223420612   -0.663177472633
| 13> H         -3.289899156874    2.024322460779    0.546770759829
| 14> H          1.190354818784    0.530844612443   -0.552826203498
| 15> H          1.182830933413    1.954173398989    0.657317736909
| 16> **                         ****END OF INPUT****

CARTESIAN COORDINATES (ANGSTROEM)
---------------------------------
  C     -3.258250    0.965621    0.350278
  C      1.344071    1.575445   -0.338363
  H     -3.282377    0.601223   -0.663177
  H     -3.289899    2.024322    0.546771
  H      1.190355    0.530845   -0.552826
  H      1.182831    1.954173    0.657318

 Total Charge           Charge          ....    0
 Multiplicity           Mult            ....    1
 Number of Electrons    NEL             ....   16
 Basis Dimension        Dim             ....   36

ORBITAL ENERGIES
----------------

  NO   OCC          E(Eh)            E(eV)
   0   2.0000     -10.336738      -281.2769
   1   2.0000     -10.334668      -281.2206
   2   2.0000      -0.776861       -21.1394
   3   2.0000      -0.774628       -21.0787
   4   2.0000      -0.540992       -14.7211
   5   2.0000      -0.538745       -14.6600
   6   2.0000      -0.312742        -8.5101
   7   2.0000      -0.310275        -8.4430
   8   0.0000      -0.024095        -0.6557
   9   0.0000      -0.017576        -0.4783
  10   0.0000       0.208754         5.6805
  11   0.0000       0.213634         5.8133
  12   0.0000       0.274771         7.4769

MULLIKEN ATOMIC CHARGES
-----------------------
   0 C :   -0.342232
   1 C :   -0.342833
   2 H :    0.171116
   3 H :    0.171045
   4 H :    0.171449
   5 H :    0.171456
Sum of atomic charges:   -0.0000000

LOEWDIN ATOMIC CHARGES
----------------------
   0 C :   -0.251611
   1 C :   -0.251761
   2 H :    0.125851
   3 H :    0.125691
   4 H :    0.126018
   5 H :    0.125813

  Mayer bond orders larger than 0.1
B(  0-C ,  2-H ) :   0.9227 B(  0-C ,  3-H ) :   0.9231 B(  1-C ,  4-H ) :   0.9230
B(  1-C ,  5-H ) :   0.9225

Dispersion correction           -0.000216697
FINAL SINGLE POINT ENERGY       -78.204208546433

DIPOLE MOMENT
-------------
                                X             Y             Z
Electronic contribution:      0.03305      -0.00558       0.00568
Nuclear contribution   :     -0.29782       0.02284      -0.02872
                        -----------------------------------------
Total Dipole Moment    :     -0.26477       0.01726      -0.02304
                        -----------------------------------------
Magnitude (a.u.)       :      0.26633
Magnitude (Debye)      :      0.67696

                             ****ORCA TERMINATED NORMALLY****
TOTAL RUN TIME: 0 days 0 hours 0 minutes 4 seconds 439 msec
