                         Program Version 4.0.0.2 - RELEASE -
|  1> ! WB97X-D3 6-31G(d) VerySlowConv
|  2> ! KDIIS NOSOSCF
|  3> %base "Scan_43"
|  4>
|  5> %scf
|  6> maxiter 999
|  7> end
|  8>
|  9> * xyz 0 1
| 10> C         -3.308724749530    0.963055070236    0.352982225755
| 11> C          1.398464941804    1.571255921106   -0.333097528094
| 12> H         -3.296575253415    0.599001818635   -0.660772599839
| 13> H         -3.304097842550    2.022219122644    0.549276178251
| 14> H          1.202593673513    0.536331868489   -0.559310978341
| 15> H          1.195069230179    1.959766198889    0.650922702268
| 16> **                         ****END OF INPUT****

CARTESIAN COORDINATES (ANGSTROEM)
---------------------------------
  C     -3.308725    0.963055    0.352982
  C      1.398465    1.571256   -0.333098
  H     -3.296575    0.599002   -0.660773
  H     -3.304098    2.022219    0.549276
  H      1.202594    0.536332   -0.559311
  H      1.195069    1.959766    0.650923

 Total Charge           Charge          ....    0
 Multiplicity           Mult            ....    1
 Number of Electrons    NEL             ....   16
 Basis Dimension        Dim             ....   36

ORBITAL ENERGIES
----------------

  NO   OCC          E(Eh)            E(eV)
   0   2.0000     -10.336906      -281.2815
   1   2.0000     -10.335233      -281.2360
   2   2.0000      -0.777077       -21.1453
   3   2.0000      -0.775186       -21.0939
   4   2.0000      -0.541246       -14.7281
   5   2.0000      -0.539293       -14.6749
   6   2.0000      -0.312795        -8.5116
   7   2.0000      -0.310572        -8.4511
   8   0.0000      -0.023616        -0.6426
   9   0.0000      -0.018573        -0.5054
  10   0.0000       0.208427         5.6716
  11   0.0000       0.213165         5.8005
  12   0.0000       0.274107         7.4588

MULLIKEN ATOMIC CHARGES
-----------------------
   0 C :   -0.341457
   1 C :   -0.342200
   2 H :    0.170732
   3 H :    0.170649
   4 H :    0.171186
   5 H :    0.171091
Sum of atomic charges:   -0.0000000

LOEWDIN ATOMIC CHARGES
----------------------
   0 C :   -0.251272
   1 C :   -0.251234
   2 H :    0.125689
   3 H :    0.125508
   4 H :    0.125844
   5 H :    0.125466

  Mayer bond orders larger than 0.1
B(  0-C ,  2-H ) :   0.9227 B(  0-C ,  3-H ) :   0.9231 B(  1-C ,  4-H ) :   0.9229
B(  1-C ,  5-H ) :   0.9224

Dispersion correction           -0.000200316
FINAL SINGLE POINT ENERGY       -78.204064240194

DIPOLE MOMENT
-------------
                                X             Y             Z
Electronic contribution:      0.03181      -0.00710       0.00703
Nuclear contribution   :     -0.30727       0.03912      -0.04792
                        -----------------------------------------
Total Dipole Moment    :     -0.27546       0.03202      -0.04089
                        -----------------------------------------
Magnitude (a.u.)       :      0.28031
Magnitude (Debye)      :      0.71250

                             ****ORCA TERMINATED NORMALLY****
TOTAL RUN TIME: 0 days 0 hours 0 minutes 4 seconds 434 msec
