                         Program Version 4.0.0.2 - RELEASE -
|  1> ! WB97X-D3 6-31G(d) VerySlowConv
|  2> ! KDIIS NOSOSCF
|  3> %base "Scan_44"
|  4>
|  5> %scf
|  6> maxiter 999
|  7> end
|  8>
|  9> * xyz 0 1
| 10> C         -3.361044710229    0.961546797664    0.354430929164
| 11> C          1.451459611280    1.566477909035   -0.327148318423
| 12> H         -3.313742622465    0.596276068938   -0.657781703443
| 13> H         -3.321265735163    2.019600264362    0.552357953715
| 14> H          1.219424295699    0.542084560509   -0.566099624901
| 15> H          1.211899160878    1.965644399492    0.644240763887
| 16> **                         ****END OF INPUT****

CARTESIAN COORDINATES (ANGSTROEM)
---------------------------------
  C     -3.361045    0.961547    0.354431
  C      1.451460    1.566478   -0.327148
  H     -3.313743    0.596276   -0.657782
  H     -3.321266    2.019600    0.552358
  H      1.219424    0.542085   -0.566100
  H      1.211899    1.965644    0.644241

 Total Charge           Charge          ....    0
 Multiplicity           Mult            ....    1
 Number of Electrons    NEL             ....   16
 Basis Dimension        Dim             ....   36

ORBITAL ENERGIES
----------------

  NO   OCC          E(Eh)            E(eV)
   0   2.0000     -10.336982      -281.2836
   1   2.0000     -10.335691      -281.2485
   2   2.0000      -0.777210       -21.1490
   3   2.0000      -0.775628       -21.1059
   4   2.0000      -0.541425       -14.7329
   5   2.0000      -0.539769       -14.6879
   6   2.0000      -0.312745        -8.5102
   7   2.0000      -0.310807        -8.4575
   8   0.0000      -0.023209        -0.6315
   9   0.0000      -0.019343        -0.5263
  10   0.0000       0.208204         5.6655
  11   0.0000       0.212803         5.7907
  12   0.0000       0.273602         7.4451

MULLIKEN ATOMIC CHARGES
-----------------------
   0 C :   -0.340837
   1 C :   -0.341604
   2 H :    0.170426
   3 H :    0.170343
   4 H :    0.170926
   5 H :    0.170746
Sum of atomic charges:   -0.0000000

LOEWDIN ATOMIC CHARGES
----------------------
   0 C :   -0.251036
   1 C :   -0.250703
   2 H :    0.125559
   3 H :    0.125410
   4 H :    0.125609
   5 H :    0.125161

  Mayer bond orders larger than 0.1
B(  0-C ,  2-H ) :   0.9226 B(  0-C ,  3-H ) :   0.9231 B(  1-C ,  4-H ) :   0.9228
B(  1-C ,  5-H ) :   0.9224

Dispersion correction           -0.000184387
FINAL SINGLE POINT ENERGY       -78.203929117231

DIPOLE MOMENT
-------------
                                X             Y             Z
Electronic contribution:      0.02964      -0.00802       0.00820
Nuclear contribution   :     -0.30890       0.05427      -0.06575
                        -----------------------------------------
Total Dipole Moment    :     -0.27926       0.04626      -0.05755
                        -----------------------------------------
Magnitude (a.u.)       :      0.28886
Magnitude (Debye)      :      0.73421

                             ****ORCA TERMINATED NORMALLY****
TOTAL RUN TIME: 0 days 0 hours 0 minutes 3 seconds 794 msec
