                         Program Version 4.0.0.2 - RELEASE -
|  1> ! WB97X-D3 6-31G(d) VerySlowConv
|  2> ! KDIIS NOSOSCF
|  3> %base "Scan_45"
|  4>
|  5> %scf
|  6> maxiter 999
|  7> end
|  8>
|  9> * xyz 0 1
| 10> C         -3.401480133775    0.960897998424    0.354942494914
| 11> C          1.510403273983    1.581215125409   -0.344115128673
| 12> H         -3.464717911475    0.595755815912   -0.657491791713
| 13> H         -3.472236545708    2.018471412199    0.552130239888
| 14> H          1.361143264123    0.535870087266   -0.557898740827
| 15> H          1.353618052851    1.959419560789    0.652432926411
| 16> **                         ****END OF INPUT****

CARTESIAN COORDINATES (ANGSTROEM)
---------------------------------
  C     -3.401480    0.960898    0.354942
  C      1.510403    1.581215   -0.344115
  H     -3.464718    0.595756   -0.657492
  H     -3.472237    2.018471    0.552130
  H      1.361143    0.535870   -0.557899
  H      1.353618    1.959420    0.652433

 Total Charge           Charge          ....    0
 Multiplicity           Mult            ....    1
 Number of Electrons    NEL             ....   16
 Basis Dimension        Dim             ....   36

ORBITAL ENERGIES
----------------

  NO   OCC          E(Eh)            E(eV)
   0   2.0000     -10.336372      -281.2670
   1   2.0000     -10.333688      -281.1939
   2   2.0000      -0.776106       -21.1189
   3   2.0000      -0.773602       -21.0508
   4   2.0000      -0.539869       -14.6906
   5   2.0000      -0.537823       -14.6349
   6   2.0000      -0.312390        -8.5006
   7   2.0000      -0.309321        -8.4170
   8   0.0000      -0.021999        -0.5986
   9   0.0000      -0.017852        -0.4858
  10   0.0000       0.210141         5.7182
  11   0.0000       0.213519         5.8101
  12   0.0000       0.275489         7.4964

MULLIKEN ATOMIC CHARGES
-----------------------
   0 C :   -0.341225
   1 C :   -0.342453
   2 H :    0.170630
   3 H :    0.170576
   4 H :    0.171228
   5 H :    0.171244
Sum of atomic charges:   -0.0000000

LOEWDIN ATOMIC CHARGES
----------------------
   0 C :   -0.251100
   1 C :   -0.251719
   2 H :    0.125585
   3 H :    0.125497
   4 H :    0.125961
   5 H :    0.125776

  Mayer bond orders larger than 0.1
B(  0-C ,  2-H ) :   0.9228 B(  0-C ,  3-H ) :   0.9232 B(  1-C ,  4-H ) :   0.9232
B(  1-C ,  5-H ) :   0.9227

Dispersion correction           -0.000150818
FINAL SINGLE POINT ENERGY       -78.204434346706

DIPOLE MOMENT
-------------
                                X             Y             Z
Electronic contribution:      0.04040      -0.00728       0.00801
Nuclear contribution   :     -0.35350       0.02032      -0.02609
                        -----------------------------------------
Total Dipole Moment    :     -0.31310       0.01304      -0.01808
                        -----------------------------------------
Magnitude (a.u.)       :      0.31389
Magnitude (Debye)      :      0.79785

                             ****ORCA TERMINATED NORMALLY****
TOTAL RUN TIME: 0 days 0 hours 0 minutes 4 seconds 58 msec
