                         Program Version 4.0.0.2 - RELEASE -
|  1> ! WB97X-D3 6-31G(d) VerySlowConv
|  2> ! KDIIS NOSOSCF
|  3> %base "Scan_5"
|  4>
|  5> %scf
|  6> maxiter 999
|  7> end
|  8>
|  9> * xyz 0 1
| 10> C         -1.608815177367    1.272010794745    0.000230876268
| 11> C         -0.428939649607    1.278169583791    0.000196027242
| 12> H         -2.214878913334    0.582885777403   -0.583459898187
| 13> H         -2.222182562109    1.955155220368    0.583274702975
| 14> H          0.184424987012    0.595567511892   -0.583487501254
| 15> H          0.177121315405    1.967841111800    0.583245792956
| 16> **                         ****END OF INPUT****

CARTESIAN COORDINATES (ANGSTROEM)
---------------------------------
  C     -1.608815    1.272011    0.000231
  C     -0.428940    1.278170    0.000196
  H     -2.214879    0.582886   -0.583460
  H     -2.222183    1.955155    0.583275
  H      0.184425    0.595568   -0.583488
  H      0.177121    1.967841    0.583246

 Total Charge           Charge          ....    0
 Multiplicity           Mult            ....    1
 Number of Electrons    NEL             ....   16
 Basis Dimension        Dim             ....   36

ORBITAL ENERGIES
----------------

  NO   OCC          E(Eh)            E(eV)
   0   2.0000     -10.257240      -279.1137
   1   2.0000     -10.254391      -279.0362
   2   2.0000      -0.904027       -24.5998
   3   2.0000      -0.673770       -18.3342
   4   2.0000      -0.577172       -15.7057
   5   2.0000      -0.535614       -14.5748
   6   2.0000      -0.417679       -11.3656
   7   2.0000      -0.390033       -10.6133
   8   0.0000       0.143545         3.9061
   9   0.0000       0.219465         5.9719
  10   0.0000       0.222653         6.0587
  11   0.0000       0.261740         7.1223
  12   0.0000       0.361053         9.8248

MULLIKEN ATOMIC CHARGES
-----------------------
   0 C :   -0.318564
   1 C :   -0.318563
   2 H :    0.159255
   3 H :    0.159309
   4 H :    0.159310
   5 H :    0.159253
Sum of atomic charges:   -0.0000000

LOEWDIN ATOMIC CHARGES
----------------------
   0 C :   -0.263276
   1 C :   -0.263276
   2 H :    0.131634
   3 H :    0.131642
   4 H :    0.131641
   5 H :    0.131635

  Mayer bond orders larger than 0.1
B(  0-C ,  1-C ) :   2.0582 B(  0-C ,  2-H ) :   0.9430 B(  0-C ,  3-H ) :   0.9430
B(  1-C ,  4-H ) :   0.9430 B(  1-C ,  5-H ) :   0.9430

Dispersion correction           -0.000233778
FINAL SINGLE POINT ENERGY       -78.522664647099

DIPOLE MOMENT
-------------
                                X             Y             Z
Electronic contribution:      0.00000      -0.00059       0.00070
Nuclear contribution   :     -0.00000       0.00087      -0.00103
                        -----------------------------------------
Total Dipole Moment    :     -0.00000       0.00029      -0.00033
                        -----------------------------------------
Magnitude (a.u.)       :      0.00043
Magnitude (Debye)      :      0.00110

                             ****ORCA TERMINATED NORMALLY****
TOTAL RUN TIME: 0 days 0 hours 0 minutes 13 seconds 453 msec
