                         Program Version 4.0.0.2 - RELEASE -
|  1> ! WB97X-D3 6-31G(d) VerySlowConv
|  2> ! KDIIS NOSOSCF
|  3> %base "Scan_6"
|  4>
|  5> %scf
|  6> maxiter 999
|  7> end
|  8>
|  9> * xyz 0 1
| 10> C         -1.623078217011    1.272444908165   -0.000424491606
| 11> C         -0.414682314008    1.278829962753   -0.000435941558
| 12> H         -2.220816091585    0.580480072316   -0.584927521702
| 13> H         -2.228097457538    1.956944523334    0.585370402412
| 14> H          0.190342721420    0.593233345610   -0.584940666088
| 15> H          0.183061358722    1.969697187822    0.585358218543
| 16> **                         ****END OF INPUT****

CARTESIAN COORDINATES (ANGSTROEM)
---------------------------------
  C     -1.623078    1.272445   -0.000424
  C     -0.414682    1.278830   -0.000436
  H     -2.220816    0.580480   -0.584928
  H     -2.228097    1.956945    0.585370
  H      0.190343    0.593233   -0.584941
  H      0.183061    1.969697    0.585358

 Total Charge           Charge          ....    0
 Multiplicity           Mult            ....    1
 Number of Electrons    NEL             ....   16
 Basis Dimension        Dim             ....   36

ORBITAL ENERGIES
----------------

  NO   OCC          E(Eh)            E(eV)
   0   2.0000     -10.260794      -279.2104
   1   2.0000     -10.258559      -279.1496
   2   2.0000      -0.897820       -24.4309
   3   2.0000      -0.676490       -18.4082
   4   2.0000      -0.575008       -15.6468
   5   2.0000      -0.531733       -14.4692
   6   2.0000      -0.423657       -11.5283
   7   2.0000      -0.383618       -10.4388
   8   0.0000       0.135967         3.6998
   9   0.0000       0.222084         6.0432
  10   0.0000       0.223358         6.0779
  11   0.0000       0.261251         7.1090
  12   0.0000       0.358013         9.7420

MULLIKEN ATOMIC CHARGES
-----------------------
   0 C :   -0.322356
   1 C :   -0.322356
   2 H :    0.161158
   3 H :    0.161198
   4 H :    0.161195
   5 H :    0.161161
Sum of atomic charges:   -0.0000000

LOEWDIN ATOMIC CHARGES
----------------------
   0 C :   -0.265039
   1 C :   -0.265039
   2 H :    0.132523
   3 H :    0.132516
   4 H :    0.132519
   5 H :    0.132520

  Mayer bond orders larger than 0.1
B(  0-C ,  1-C ) :   2.0488 B(  0-C ,  2-H ) :   0.9444 B(  0-C ,  3-H ) :   0.9444
B(  1-C ,  4-H ) :   0.9444 B(  1-C ,  5-H ) :   0.9444

Dispersion correction           -0.000237968
FINAL SINGLE POINT ENERGY       -78.535921005399

DIPOLE MOMENT
-------------
                                X             Y             Z
Electronic contribution:     -0.00001       0.00118      -0.00141
Nuclear contribution   :      0.00001      -0.00176       0.00207
                        -----------------------------------------
Total Dipole Moment    :      0.00000      -0.00058       0.00066
                        -----------------------------------------
Magnitude (a.u.)       :      0.00088
Magnitude (Debye)      :      0.00225

                             ****ORCA TERMINATED NORMALLY****
TOTAL RUN TIME: 0 days 0 hours 0 minutes 4 seconds 289 msec
