                         Program Version 4.0.0.2 - RELEASE -
|  1> ! WB97X-D3 6-31G(d) VerySlowConv
|  2> ! KDIIS NOSOSCF
|  3> %base "Scan_7"
|  4>
|  5> %scf
|  6> maxiter 999
|  7> end
|  8>
|  9> * xyz 0 1
| 10> C         -1.638907174220    1.272022176217    0.000011849453
| 11> C         -0.398849468951    1.278527464097   -0.000019269057
| 12> H         -2.227272543689    0.578213867281   -0.587189281799
| 13> H         -2.234610994936    1.959510954152    0.587216168900
| 14> H          0.196854313861    0.591029568110   -0.587214329767
| 15> H          0.189515867934    1.972325970143    0.587194862270
| 16> **                         ****END OF INPUT****

CARTESIAN COORDINATES (ANGSTROEM)
---------------------------------
  C     -1.638907    1.272022    0.000012
  C     -0.398849    1.278527   -0.000019
  H     -2.227273    0.578214   -0.587189
  H     -2.234611    1.959511    0.587216
  H      0.196854    0.591030   -0.587214
  H      0.189516    1.972326    0.587195

 Total Charge           Charge          ....    0
 Multiplicity           Mult            ....    1
 Number of Electrons    NEL             ....   16
 Basis Dimension        Dim             ....   36

ORBITAL ENERGIES
----------------

  NO   OCC          E(Eh)            E(eV)
   0   2.0000     -10.264815      -279.3198
   1   2.0000     -10.263104      -279.2733
   2   2.0000      -0.890957       -24.2442
   3   2.0000      -0.679395       -18.4873
   4   2.0000      -0.572907       -15.5896
   5   2.0000      -0.527116       -14.3436
   6   2.0000      -0.430127       -11.7044
   7   2.0000      -0.376831       -10.2541
   8   0.0000       0.127826         3.4783
   9   0.0000       0.221384         6.0242
  10   0.0000       0.227491         6.1903
  11   0.0000       0.260635         7.0923
  12   0.0000       0.354799         9.6546

MULLIKEN ATOMIC CHARGES
-----------------------
   0 C :   -0.326444
   1 C :   -0.326443
   2 H :    0.163196
   3 H :    0.163248
   4 H :    0.163248
   5 H :    0.163195
Sum of atomic charges:   -0.0000000

LOEWDIN ATOMIC CHARGES
----------------------
   0 C :   -0.266962
   1 C :   -0.266961
   2 H :    0.133481
   3 H :    0.133481
   4 H :    0.133481
   5 H :    0.133481

  Mayer bond orders larger than 0.1
B(  0-C ,  1-C ) :   2.0398 B(  0-C ,  2-H ) :   0.9455 B(  0-C ,  3-H ) :   0.9455
B(  1-C ,  4-H ) :   0.9455 B(  1-C ,  5-H ) :   0.9455

Dispersion correction           -0.000242752
FINAL SINGLE POINT ENERGY       -78.546369983960

DIPOLE MOMENT
-------------
                                X             Y             Z
Electronic contribution:      0.00000       0.00001      -0.00001
Nuclear contribution   :     -0.00000      -0.00002       0.00002
                        -----------------------------------------
Total Dipole Moment    :      0.00000      -0.00001       0.00001
                        -----------------------------------------
Magnitude (a.u.)       :      0.00001
Magnitude (Debye)      :      0.00002

                             ****ORCA TERMINATED NORMALLY****
TOTAL RUN TIME: 0 days 0 hours 0 minutes 4 seconds 435 msec
