                         Program Version 4.0.0.2 - RELEASE -
|  1> ! WB97X-D3 6-31G(d) VerySlowConv
|  2> ! KDIIS NOSOSCF
|  3> %base "Scan_8"
|  4>
|  5> %scf
|  6> maxiter 999
|  7> end
|  8>
|  9> * xyz 0 1
| 10> C         -1.656952924982    1.271979340678   -0.000092365201
| 11> C         -0.380804601381    1.278727071185   -0.000099447427
| 12> H         -2.235205181678    0.575408286176   -0.589462580459
| 13> H         -2.242536485803    1.962147350286    0.589570726740
| 14> H          0.204780246119    0.588314955774   -0.589475410721
| 15> H          0.197448947724    1.975052995901    0.589559077068
| 16> **                         ****END OF INPUT****

CARTESIAN COORDINATES (ANGSTROEM)
---------------------------------
  C     -1.656953    1.271979   -0.000092
  C     -0.380805    1.278727   -0.000099
  H     -2.235205    0.575408   -0.589463
  H     -2.242536    1.962147    0.589571
  H      0.204780    0.588315   -0.589475
  H      0.197449    1.975053    0.589559

 Total Charge           Charge          ....    0
 Multiplicity           Mult            ....    1
 Number of Electrons    NEL             ....   16
 Basis Dimension        Dim             ....   36

ORBITAL ENERGIES
----------------

  NO   OCC          E(Eh)            E(eV)
   0   2.0000     -10.269480      -279.4468
   1   2.0000     -10.268213      -279.4123
   2   2.0000      -0.883234       -24.0340
   3   2.0000      -0.682599       -18.5744
   4   2.0000      -0.570704       -15.5296
   5   2.0000      -0.521645       -14.1947
   6   2.0000      -0.437175       -11.8961
   7   2.0000      -0.369495       -10.0545
   8   0.0000       0.118879         3.2349
   9   0.0000       0.220544         6.0013
  10   0.0000       0.231852         6.3090
  11   0.0000       0.259700         7.0668
  12   0.0000       0.351320         9.5599

MULLIKEN ATOMIC CHARGES
-----------------------
   0 C :   -0.330967
   1 C :   -0.330967
   2 H :    0.165463
   3 H :    0.165504
   4 H :    0.165503
   5 H :    0.165464
Sum of atomic charges:   -0.0000000

LOEWDIN ATOMIC CHARGES
----------------------
   0 C :   -0.269078
   1 C :   -0.269078
   2 H :    0.134544
   3 H :    0.134534
   4 H :    0.134535
   5 H :    0.134543

  Mayer bond orders larger than 0.1
B(  0-C ,  1-C ) :   2.0312 B(  0-C ,  2-H ) :   0.9462 B(  0-C ,  3-H ) :   0.9462
B(  1-C ,  4-H ) :   0.9462 B(  1-C ,  5-H ) :   0.9462

Dispersion correction           -0.000248648
FINAL SINGLE POINT ENERGY       -78.553621510132

DIPOLE MOMENT
-------------
                                X             Y             Z
Electronic contribution:     -0.00000       0.00026      -0.00031
Nuclear contribution   :      0.00000      -0.00039       0.00046
                        -----------------------------------------
Total Dipole Moment    :      0.00000      -0.00013       0.00015
                        -----------------------------------------
Magnitude (a.u.)       :      0.00020
Magnitude (Debye)      :      0.00052

                             ****ORCA TERMINATED NORMALLY****
TOTAL RUN TIME: 0 days 0 hours 0 minutes 4 seconds 189 msec
