                         Program Version 4.0.0.2 - RELEASE -
|  1> ! WB97X-D3 6-31G(d) VerySlowConv
|  2> ! KDIIS NOSOSCF
|  3> %base "Scan_9"
|  4>
|  5> %scf
|  6> maxiter 999
|  7> end
|  8>
|  9> * xyz 0 1
| 10> C         -1.677551695134    1.271871176791   -0.000104918914
| 11> C         -0.360205831161    1.278816940564   -0.000065375349
| 12> H         -2.244756421274    0.572283355473   -0.592078200674
| 13> H         -2.252103783123    1.965165792369    0.592180003100
| 14> H          0.214347556884    0.585303532001   -0.592095508933
| 15> H          0.207000173809    1.978189202801    0.592164000770
| 16> **                         ****END OF INPUT****

CARTESIAN COORDINATES (ANGSTROEM)
---------------------------------
  C     -1.677552    1.271871   -0.000105
  C     -0.360206    1.278817   -0.000065
  H     -2.244756    0.572283   -0.592078
  H     -2.252104    1.965166    0.592180
  H      0.214348    0.585304   -0.592096
  H      0.207000    1.978189    0.592164

 Total Charge           Charge          ....    0
 Multiplicity           Mult            ....    1
 Number of Electrons    NEL             ....   16
 Basis Dimension        Dim             ....   36

ORBITAL ENERGIES
----------------

  NO   OCC          E(Eh)            E(eV)
   0   2.0000     -10.274842      -279.5927
   1   2.0000     -10.273939      -279.5681
   2   2.0000      -0.874621       -23.7996
   3   2.0000      -0.686122       -18.6703
   4   2.0000      -0.568452       -15.4684
   5   2.0000      -0.515130       -14.0174
   6   2.0000      -0.444823       -12.1043
   7   2.0000      -0.361603        -9.8397
   8   0.0000       0.109103         2.9688
   9   0.0000       0.219550         5.9743
  10   0.0000       0.236448         6.4341
  11   0.0000       0.258358         7.0303
  12   0.0000       0.347582         9.4582

MULLIKEN ATOMIC CHARGES
-----------------------
   0 C :   -0.335977
   1 C :   -0.335971
   2 H :    0.167968
   3 H :    0.168007
   4 H :    0.168006
   5 H :    0.167967
Sum of atomic charges:   -0.0000000

LOEWDIN ATOMIC CHARGES
----------------------
   0 C :   -0.271421
   1 C :   -0.271416
   2 H :    0.135716
   3 H :    0.135703
   4 H :    0.135703
   5 H :    0.135715

  Mayer bond orders larger than 0.1
B(  0-C ,  1-C ) :   2.0230 B(  0-C ,  2-H ) :   0.9465 B(  0-C ,  3-H ) :   0.9465
B(  1-C ,  4-H ) :   0.9465 B(  1-C ,  5-H ) :   0.9465

Dispersion correction           -0.000255889
FINAL SINGLE POINT ENERGY       -78.556903620990

DIPOLE MOMENT
-------------
                                X             Y             Z
Electronic contribution:      0.00000       0.00023      -0.00027
Nuclear contribution   :      0.00000      -0.00035       0.00041
                        -----------------------------------------
Total Dipole Moment    :      0.00000      -0.00012       0.00014
                        -----------------------------------------
Magnitude (a.u.)       :      0.00018
Magnitude (Debye)      :      0.00047

                             ****ORCA TERMINATED NORMALLY****
TOTAL RUN TIME: 0 days 0 hours 0 minutes 4 seconds 199 msec
