                         Program Version 4.2.0 -  RELEASE  -
|  1> # ORCA input file
|  2> # energy: -37.029572824365 gnorm: 0.000913467098 xtb: 6.2.3 (conda-forge)
|  3> ! RKS wB97x 6-31g(d) TightSCF Grid4 Opt
|  4> * xyz 0 1
|  5>    N       -0.08438         1.08866         0.20833
|  6>    C        1.04938         0.17838         0.09990
|  7>    C        1.75339         0.07378         1.45228
|  8>    O        2.89349        -0.36275         1.57159
|  9>    H        0.24753         2.04924         0.22404
| 10>    H        0.64906        -0.82333        -0.10518
| 11>    C        2.06218         0.54346        -0.98909
| 12>    H        1.60415         0.48180        -1.97391
| 13>    H        2.43083         1.55650        -0.83287
| 14>    H        2.90585        -0.13920        -0.94472
| 15>    H       -0.69027         0.99354        -0.59876
| 16>    N        1.01110         0.46613         2.49071
| 17>    C        1.50828         0.57326         3.85428
| 18>    C        1.68607        -0.83068         4.49118
| 19>    O        1.08194        -1.17292         5.46758
| 20>    H        0.06824         0.77302         2.28904
| 21>    H        2.51038         1.02738         3.81218
| 22>    C        0.56420         1.42940         4.68092
| 23>    H        0.43408         2.40764         4.22442
| 24>    H       -0.40052         0.93586         4.76797
| 25>    H        0.96678         1.55472         5.68157
| 26>    O        2.56957        -1.60017         3.88344
| 27>    H        2.92457        -1.19110         3.04630
| 28> *
| 29>
| 30>                          ****END OF INPUT****
 Total Charge           Charge          ....    0
 Multiplicity           Mult            ....    1
 Number of Electrons    NEL             ....   86
FINAL SINGLE POINT ENERGY      -570.931640485466
FINAL SINGLE POINT ENERGY      -570.931943755159
FINAL SINGLE POINT ENERGY      -570.932996806731
FINAL SINGLE POINT ENERGY      -570.933346660759
FINAL SINGLE POINT ENERGY      -570.933241847598
FINAL SINGLE POINT ENERGY      -570.933483905645
FINAL SINGLE POINT ENERGY      -570.933503158960
FINAL SINGLE POINT ENERGY      -570.933526635485
FINAL SINGLE POINT ENERGY      -570.933536018884
FINAL SINGLE POINT ENERGY      -570.933540897817
FINAL SINGLE POINT ENERGY      -570.933543314902
                    ***********************HURRAY********************

CARTESIAN COORDINATES (ANGSTROEM)
---------------------------------
  N     -0.131549    1.011943    0.164639
  C      1.075095    0.187570    0.087677
  C      1.753349    0.100460    1.457923
  O      2.906424   -0.328974    1.576017
  H      0.109402    1.990586    0.025399
  H      0.749603   -0.839279   -0.125794
  C      2.086819    0.612506   -0.975836
  H      1.636200    0.555711   -1.972248
  H      2.415089    1.644965   -0.803450
  H      2.969792   -0.029817   -0.944559
  H     -0.776382    0.762914   -0.578144
  N      1.004086    0.482914    2.504107
  C      1.517154    0.555135    3.868425
  C      1.632798   -0.847969    4.499604
  O      1.037511   -1.161738    5.499447
  H      0.061515    0.789482    2.288777
  H      2.535051    0.964265    3.805374
  C      0.632519    1.460178    4.708417
  H      0.582490    2.461522    4.268646
  H     -0.376902    1.044686    4.786753
  H      1.030565    1.536176    5.722334
  O      2.456270   -1.686016    3.869293
  H      2.839001   -1.254602    3.068399

 Multiplicity           Mult            ....    1
 Number of Electrons    NEL             ....   86
 Basis Dimension        Dim             ....  178

ORBITAL ENERGIES
----------------

  NO   OCC          E(Eh)            E(eV)
   0   2.0000     -19.230705      -523.2941
   1   2.0000     -19.203531      -522.5547
   2   2.0000     -19.185924      -522.0755
   3   2.0000     -14.447752      -393.1433
   4   2.0000     -14.419652      -392.3787
   5   2.0000     -10.386401      -282.6283
   6   2.0000     -10.385678      -282.6087
   7   2.0000     -10.324886      -280.9544
   8   2.0000     -10.324843      -280.9532
   9   2.0000     -10.269318      -279.4423
  10   2.0000     -10.265856      -279.3481
  11   2.0000      -1.213066       -33.0092
  12   2.0000      -1.182317       -32.1725
  13   2.0000      -1.124822       -30.6080
  14   2.0000      -1.075947       -29.2780
  15   2.0000      -1.045041       -28.4370
  16   2.0000      -0.915153       -24.9026
  17   2.0000      -0.887485       -24.1497
  18   2.0000      -0.802632       -21.8407
  19   2.0000      -0.774072       -21.0636
  20   2.0000      -0.714831       -19.4515
  21   2.0000      -0.706816       -19.2334
  22   2.0000      -0.662711       -18.0333
  23   2.0000      -0.651306       -17.7229
  24   2.0000      -0.616121       -16.7655
  25   2.0000      -0.611860       -16.6495
  26   2.0000      -0.566600       -15.4180
  27   2.0000      -0.551262       -15.0006
  28   2.0000      -0.545066       -14.8320
  29   2.0000      -0.541882       -14.7454
  30   2.0000      -0.526326       -14.3221
  31   2.0000      -0.521092       -14.1796
  32   2.0000      -0.514841       -14.0095
  33   2.0000      -0.506119       -13.7722
  34   2.0000      -0.482828       -13.1384
  35   2.0000      -0.478809       -13.0290
  36   2.0000      -0.466559       -12.6957
  37   2.0000      -0.459753       -12.5105
  38   2.0000      -0.401055       -10.9132
  39   2.0000      -0.398280       -10.8378
  40   2.0000      -0.389739       -10.6053
  41   2.0000      -0.362344        -9.8599
  42   2.0000      -0.346977        -9.4417
  43   0.0000       0.091938         2.5018
  44   0.0000       0.122052         3.3212
  45   0.0000       0.157629         4.2893
  46   0.0000       0.192950         5.2504
  47   0.0000       0.203423         5.5354

MULLIKEN ATOMIC CHARGES
-----------------------
   0 N :   -0.765397
   1 C :   -0.099087
   2 C :    0.570670
   3 O :   -0.527569
   4 H :    0.321945
   5 H :    0.198060
   6 C :   -0.488591
   7 H :    0.160544
   8 H :    0.159403
   9 H :    0.203825
  10 H :    0.333736
  11 N :   -0.597579
  12 C :   -0.111659
  13 C :    0.581782
  14 O :   -0.415763
  15 H :    0.379547
  16 H :    0.197530
  17 C :   -0.498433
  18 H :    0.161915
  19 H :    0.183872
  20 H :    0.197119
  21 O :   -0.605590
  22 H :    0.459720
Sum of atomic charges:   -0.0000000

LOEWDIN ATOMIC CHARGES
----------------------
   0 N :   -0.472722
   1 C :   -0.108145
   2 C :    0.114459
   3 O :   -0.309534
   4 H :    0.233684
   5 H :    0.152300
   6 C :   -0.381395
   7 H :    0.130903
   8 H :    0.131064
   9 H :    0.155036
  10 H :    0.241062
  11 N :   -0.193229
  12 C :   -0.106739
  13 C :    0.127136
  14 O :   -0.220867
  15 H :    0.272305
  16 H :    0.148063
  17 C :   -0.372141
  18 H :    0.132168
  19 H :    0.144438
  20 H :    0.153659
  21 O :   -0.300728
  22 H :    0.329222

  Mayer bond orders larger than 0.100000
B(  0-N ,  1-C ) :   0.9962 B(  0-N ,  4-H ) :   0.8577 B(  0-N , 10-H ) :   0.8547
B(  1-C ,  2-C ) :   0.9416 B(  1-C ,  5-H ) :   0.9240 B(  1-C ,  6-C ) :   0.9990
B(  2-C ,  3-O ) :   1.6966 B(  2-C , 11-N ) :   1.2140 B(  3-O , 22-H ) :   0.1397
B(  6-C ,  7-H ) :   0.9498 B(  6-C ,  8-H ) :   0.9511 B(  6-C ,  9-H ) :   0.9302
B( 11-N , 12-C ) :   0.8923 B( 11-N , 15-H ) :   0.7746 B( 12-C , 13-C ) :   0.9105
B( 12-C , 16-H ) :   0.9177 B( 12-C , 17-C ) :   1.0054 B( 13-C , 14-O ) :   1.9667
B( 13-C , 21-O ) :   1.1370 B( 17-C , 18-H ) :   0.9448 B( 17-C , 19-H ) :   0.9422
B( 17-C , 20-H ) :   0.9421 B( 21-O , 22-H ) :   0.6386

FINAL SINGLE POINT ENERGY      -570.933543788982

DIPOLE MOMENT
-------------
                                X             Y             Z
Electronic contribution:      2.62147      -6.91261       7.40381
Nuclear contribution   :     -3.43232       8.66392      -9.46701
                        -----------------------------------------
Total Dipole Moment    :     -0.81084       1.75131      -2.06320
                        -----------------------------------------
Magnitude (a.u.)       :      2.82512
Magnitude (Debye)      :      7.18089

Rotational constants in cm-1:     0.067523     0.021397     0.018080
Rotational constants in MHz :  2024.281758   641.476755   542.035431

                             ****ORCA TERMINATED NORMALLY****
TOTAL RUN TIME: 0 days 0 hours 28 minutes 8 seconds 252 msec
