                         Program Version 4.2.0 -  RELEASE  -
|  1> # ORCA input file
|  2> # energy: -65.358423542768 gnorm: 0.000770968145 xtb: 6.2.3 (conda-forge)
|  3> ! RKS wB97x 6-31g(d) TightSCF Grid4 Opt
|  4> * xyz 0 1
|  5>  C          0.4034953151       -2.3564573154       -0.8096687116
|  6>  C          1.7200939446       -2.7232386227       -1.0136661180
|  7>  C          2.6443138491       -2.5957803720        0.0127423635
|  8>  C          2.2434949762       -2.0965043274        1.2412214422
|  9>  C          0.9262466314       -1.7195324229        1.4374076250
| 10>  C         -0.0066676571       -1.8517493372        0.4187697424
| 11>  C         -1.4373746222       -1.4411759987        0.6306885829
| 12>  H         -2.1123253240       -2.2355334312        0.3058070322
| 13>  H         -1.6145612156       -1.2387448517        1.6891171854
| 14>  C         -1.7661484904       -0.1681877921       -0.1821678863
| 15>  N         -0.8821511319        0.9140218813        0.1531727931
| 16>  C          0.0474777987        1.3747225777       -0.6993661045
| 17>  O          0.2482695665        0.9057664596       -1.8010399119
| 18>  C          0.8447567260        2.5696488762       -0.1525891605
| 19>  N          0.6619741158        2.6860300983        1.2779464597
| 20>  H          1.0209687830        3.5741350607        1.6111660755
| 21>  H          1.1928782577        1.9516501838        1.7421600186
| 22>  H          0.4305716750        3.4673220550       -0.6289166387
| 23>  C          2.3194740179        2.4158473166       -0.6120252610
| 24>  C          2.8498291012        1.1158900004       -0.0655697874
| 25>  O          2.8574300258        0.8251435965        1.1071988667
| 26>  O          3.2877484345        0.2989308040       -1.0121723824
| 27>  H          3.4991092737       -0.5800257445       -0.6462358786
| 28>  H          2.9096114984        3.2479976344       -0.2242648687
| 29>  H          2.3677729108        2.3902580959       -1.6987076174
| 30>  H         -1.0229378587        1.4181025462        1.0192692859
| 31>  C         -3.2055714177        0.2331822427        0.1040670756
| 32>  O         -3.5287472421        1.1449933304        0.8174675907
| 33>  O         -4.0642590763       -0.5822444513       -0.5089660815
| 34>  C         -5.4458085564       -0.3271003274       -0.2805220536
| 35>  H         -5.7019626098        0.6823969043       -0.6067720415
| 36>  H         -5.6774178529       -0.4230580360        0.7819371379
| 37>  H         -5.9908487514       -1.0670867349       -0.8601846063
| 38>  H         -1.6395607909       -0.3729604060       -1.2508564762
| 39>  H          0.6238090339       -1.3197965365        2.3941824816
| 40>  H          2.9563331717       -1.9890488066        2.0446169934
| 41>  H          3.6703178671       -2.9031586927       -0.1411238983
| 42>  H          2.0285298450       -3.1094987466       -1.9736486163
| 43>  H         -0.3123355206       -2.4615262627       -1.6110125554
| 44> *
| 45>
| 46>                          ****END OF INPUT****
 Total Charge           Charge          ....    0
 Multiplicity           Mult            ....    1
 Number of Electrons    NEL             ....  156
FINAL SINGLE POINT ENERGY     -1029.737902988698
FINAL SINGLE POINT ENERGY     -1029.741006102125
FINAL SINGLE POINT ENERGY     -1029.741540470301
FINAL SINGLE POINT ENERGY     -1029.742389432759
FINAL SINGLE POINT ENERGY     -1029.742441472450
FINAL SINGLE POINT ENERGY     -1029.742585993148
FINAL SINGLE POINT ENERGY     -1029.742615936720
FINAL SINGLE POINT ENERGY     -1029.742635643741
FINAL SINGLE POINT ENERGY     -1029.742642912617
FINAL SINGLE POINT ENERGY     -1029.742649979862
FINAL SINGLE POINT ENERGY     -1029.742653909565
FINAL SINGLE POINT ENERGY     -1029.742657186435
                    ***********************HURRAY********************

CARTESIAN COORDINATES (ANGSTROEM)
---------------------------------
  C      0.462174   -2.315709   -0.925406
  C      1.752135   -2.794507   -1.113359
  C      2.648780   -2.834090   -0.043068
  C      2.249232   -2.363073    1.204622
  C      0.953622   -1.878022    1.384000
  C      0.040490   -1.866775    0.331355
  C     -1.384980   -1.411585    0.552760
  H     -2.081290   -2.197689    0.236601
  H     -1.550919   -1.246270    1.625123
  C     -1.757213   -0.116044   -0.203504
  N     -0.900424    0.988146    0.130628
  C      0.032904    1.443211   -0.736699
  O      0.253528    0.945646   -1.832881
  C      0.840195    2.652335   -0.236687
  N      0.562672    2.940340    1.163500
  H      0.778013    3.908957    1.374530
  H      1.165636    2.357748    1.742686
  H      0.494809    3.503595   -0.836016
  C      2.326413    2.408862   -0.584377
  C      2.815171    1.162111    0.115472
  O      2.730209    0.976543    1.314644
  O      3.318271    0.255319   -0.722163
  H      3.448364   -0.565993   -0.210833
  H      2.920750    3.262991   -0.240832
  H      2.441535    2.292968   -1.662721
  H     -1.081717    1.552265    0.953717
  C     -3.196683    0.247425    0.123542
  O     -3.531982    1.163642    0.835866
  O     -4.054072   -0.612070   -0.443487
  C     -5.432385   -0.378627   -0.142348
  H     -5.735696    0.611454   -0.491704
  H     -5.604015   -0.443169    0.935164
  H     -5.985060   -1.157375   -0.667742
  H     -1.664482   -0.285171   -1.281289
  H      0.649289   -1.510742    2.361632
  H      2.940529   -2.371999    2.043521
  H      3.650146   -3.235983   -0.184227
  H      2.060698   -3.144136   -2.095060
  H     -0.228815   -2.290898   -1.765496

 Multiplicity           Mult            ....    1
 Number of Electrons    NEL             ....  156
 Basis Dimension        Dim             ....  330

ORBITAL ENERGIES
----------------

  NO   OCC          E(Eh)            E(eV)
   0   2.0000     -19.268229      -524.3152
   1   2.0000     -19.251938      -523.8719
   2   2.0000     -19.210969      -522.7571
   3   2.0000     -19.201452      -522.4981
   4   2.0000     -19.169894      -521.6393
   5   2.0000     -14.418229      -392.3400
   6   2.0000     -14.388492      -391.5308
   7   2.0000     -10.402028      -283.0536
   8   2.0000     -10.399877      -282.9950
   9   2.0000     -10.358142      -281.8594
  10   2.0000     -10.321215      -280.8545
  11   2.0000     -10.315467      -280.6981
  12   2.0000     -10.308472      -280.5078
  13   2.0000     -10.278248      -279.6854
  14   2.0000     -10.276198      -279.6296
  15   2.0000     -10.273246      -279.5492
  16   2.0000     -10.270366      -279.4709
  17   2.0000     -10.269906      -279.4583
  18   2.0000     -10.268898      -279.4309
  19   2.0000     -10.266467      -279.3648
  20   2.0000     -10.266109      -279.3550
  21   2.0000      -1.243751       -33.8442
  22   2.0000      -1.230865       -33.4936
  23   2.0000      -1.155980       -31.4558
  24   2.0000      -1.148220       -31.2447
  25   2.0000      -1.134183       -30.8627
  26   2.0000      -1.052339       -28.6356
  27   2.0000      -1.022811       -27.8321
  28   2.0000      -0.991268       -26.9738
  29   2.0000      -0.926921       -25.2228
  30   2.0000      -0.897429       -24.4203
  31   2.0000      -0.884945       -24.0806
  32   2.0000      -0.873637       -23.7729
  33   2.0000      -0.844752       -22.9869
  34   2.0000      -0.803842       -21.8737
  35   2.0000      -0.773157       -21.0387
  36   2.0000      -0.727232       -19.7890
  37   2.0000      -0.721636       -19.6367
  38   2.0000      -0.701949       -19.1010
  39   2.0000      -0.691193       -18.8083
  40   2.0000      -0.689097       -18.7513
  41   2.0000      -0.651502       -17.7283
  42   2.0000      -0.631537       -17.1850
  43   2.0000      -0.626476       -17.0473
  44   2.0000      -0.606704       -16.5093
  45   2.0000      -0.605576       -16.4786
  46   2.0000      -0.599625       -16.3166
  47   2.0000      -0.586916       -15.9708
  48   2.0000      -0.577145       -15.7049
  49   2.0000      -0.573642       -15.6096
  50   2.0000      -0.567588       -15.4448
  51   2.0000      -0.564015       -15.3476
  52   2.0000      -0.554896       -15.0995
  53   2.0000      -0.551528       -15.0079
  54   2.0000      -0.535241       -14.5646
  55   2.0000      -0.525923       -14.3111
  56   2.0000      -0.518004       -14.0956
  57   2.0000      -0.516060       -14.0427
  58   2.0000      -0.510666       -13.8959
  59   2.0000      -0.504046       -13.7158
  60   2.0000      -0.497906       -13.5487
  61   2.0000      -0.491509       -13.3747
  62   2.0000      -0.478751       -13.0275
  63   2.0000      -0.471790       -12.8381
  64   2.0000      -0.463658       -12.6168
  65   2.0000      -0.462112       -12.5747
  66   2.0000      -0.453950       -12.3526
  67   2.0000      -0.440494       -11.9865
  68   2.0000      -0.435987       -11.8638
  69   2.0000      -0.415240       -11.2992
  70   2.0000      -0.411877       -11.2077
  71   2.0000      -0.385646       -10.4940
  72   2.0000      -0.379017       -10.3136
  73   2.0000      -0.361624        -9.8403
  74   2.0000      -0.349988        -9.5237
  75   2.0000      -0.339211        -9.2304
  76   2.0000      -0.333325        -9.0702
  77   2.0000      -0.330964        -9.0060
  78   0.0000       0.073439         1.9984
  79   0.0000       0.082148         2.2354
  80   0.0000       0.105693         2.8761
  81   0.0000       0.107268         2.9189
  82   0.0000       0.128612         3.4997

MULLIKEN ATOMIC CHARGES
-----------------------
   0 C :   -0.171124
   1 C :   -0.143573
   2 C :   -0.219792
   3 C :   -0.166919
   4 C :   -0.188240
   5 C :    0.140479
   6 C :   -0.378093
   7 H :    0.186930
   8 H :    0.166590
   9 C :   -0.076474
  10 N :   -0.600652
  11 C :    0.551008
  12 O :   -0.484647
  13 C :   -0.113850
  14 N :   -0.772646
  15 H :    0.321426
  16 H :    0.348373
  17 H :    0.191621
  18 C :   -0.385865
  19 C :    0.553682
  20 O :   -0.450760
  21 O :   -0.565110
  22 H :    0.432869
  23 H :    0.182366
  24 H :    0.214422
  25 H :    0.380106
  26 C :    0.587527
  27 O :   -0.434602
  28 O :   -0.455890
  29 C :   -0.251045
  30 H :    0.187120
  31 H :    0.183885
  32 H :    0.184538
  33 H :    0.216850
  34 H :    0.160828
  35 H :    0.170200
  36 H :    0.165259
  37 H :    0.168381
  38 H :    0.164820
Sum of atomic charges:    0.0000000

LOEWDIN ATOMIC CHARGES
----------------------
   0 C :   -0.120521
   1 C :   -0.127531
   2 C :   -0.164034
   3 C :   -0.139844
   4 C :   -0.129785
   5 C :   -0.018746
   6 C :   -0.228586
   7 H :    0.145891
   8 H :    0.134394
   9 C :   -0.090406
  10 N :   -0.196846
  11 C :    0.101862
  12 O :   -0.289131
  13 C :   -0.098885
  14 N :   -0.478818
  15 H :    0.235306
  16 H :    0.241813
  17 H :    0.148541
  18 C :   -0.272735
  19 C :    0.144777
  20 O :   -0.260336
  21 O :   -0.273503
  22 H :    0.330943
  23 H :    0.147802
  24 H :    0.163419
  25 H :    0.273450
  26 C :    0.144246
  27 O :   -0.227296
  28 O :   -0.153880
  29 C :   -0.215940
  30 H :    0.138340
  31 H :    0.136722
  32 H :    0.139088
  33 H :    0.163673
  34 H :    0.137917
  35 H :    0.141161
  36 H :    0.137262
  37 H :    0.140702
  38 H :    0.139516

  Mayer bond orders larger than 0.100000
B(  0-C ,  1-C ) :   1.4758 B(  0-C ,  5-C ) :   1.4162 B(  0-C , 38-H ) :   0.9286
B(  1-C ,  2-C ) :   1.4224 B(  1-C , 37-H ) :   0.9333 B(  2-C ,  3-C ) :   1.4474
B(  2-C , 36-H ) :   0.9350 B(  3-C ,  4-C ) :   1.4284 B(  3-C , 35-H ) :   0.9325
B(  4-C ,  5-C ) :   1.4666 B(  4-C , 34-H ) :   0.9291 B(  5-C ,  6-C ) :   0.9829
B(  6-C ,  7-H ) :   0.9257 B(  6-C ,  8-H ) :   0.9394 B(  6-C ,  9-C ) :   0.9646
B(  9-C , 10-N ) :   0.9332 B(  9-C , 26-C ) :   0.9409 B(  9-C , 33-H ) :   0.8961
B( 10-N , 11-C ) :   1.1577 B( 10-N , 25-H ) :   0.7643 B( 11-C , 12-O ) :   1.8437
B( 11-C , 13-C ) :   0.9258 B( 13-C , 14-N ) :   1.0207 B( 13-C , 17-H ) :   0.9294
B( 13-C , 18-C ) :   0.9683 B( 14-N , 15-H ) :   0.8596 B( 14-N , 16-H ) :   0.8076
B( 18-C , 19-C ) :   0.9615 B( 18-C , 23-H ) :   0.9312 B( 18-C , 24-H ) :   0.9126
B( 19-C , 20-O ) :   1.8638 B( 19-C , 21-O ) :   1.1526 B( 21-O , 22-H ) :   0.7128
B( 26-C , 27-O ) :   1.9235 B( 26-C , 28-O ) :   1.0565 B( 28-O , 29-C ) :   0.8677
B( 29-C , 30-H ) :   0.9381 B( 29-C , 31-H ) :   0.9384 B( 29-C , 32-H ) :   0.9476

FINAL SINGLE POINT ENERGY     -1029.742659545488

DIPOLE MOMENT
-------------
                                X             Y             Z
Electronic contribution:      2.87246       0.72352      -1.29783
Nuclear contribution   :     -3.16748      -0.90154       1.53793
                        -----------------------------------------
Total Dipole Moment    :     -0.29502      -0.17801       0.24009
                        -----------------------------------------
Magnitude (a.u.)       :      0.41996
Magnitude (Debye)      :      1.06746

Rotational constants in cm-1:     0.014609     0.008093     0.006110
Rotational constants in MHz :   437.963256   242.618943   183.161553

                             ****ORCA TERMINATED NORMALLY****
TOTAL RUN TIME: 0 days 2 hours 26 minutes 55 seconds 392 msec
