                         Program Version 4.2.0 -  RELEASE  -
|  1> ! wB97X 6-31G(d)  KDIIS NOSOSCF VerySlowConv Grid4
|  2> %paras
|  3> P1=0,360,25
|  4> end
|  5> * int 0 1
|  6>  C 0 0 0 0 0 0
|  7>  C    1  0  0   1.39291 0 0
|  8>  C    2  1  0   1.38255 120.62811 0
|  9>  C    3  2  1   1.38477 120.20849  359.79201
| 10>  C    4  3  2   1.38477 119.65945    0.09384
| 11>  C    5  4  3   1.38254 120.20864    0.11352
| 12>  C    1  2  3   1.47111 120.67050  180.12721
| 13>  C    7  1  2   1.39291 120.65895  {P1}
| 14>  C    8  7  1   1.38255 120.63028  180.14100
| 15>  C    9  8  7   1.38477 120.20638  359.77332
| 16>  C   10  9  8   1.38478 119.66024    0.11073
| 17>  C   11 10  9   1.38256 120.20856    0.11187
| 18>  H    2  1  3   1.08044 119.51834  178.72699
| 19>  H    3  2  1   1.08055 119.79335  179.67899
| 20>  H    4  3  2   1.08010 120.17046  180.09210
| 21>  H    5  4  3   1.08055 119.99816  180.21642
| 22>  H    6  5  4   1.08044 119.84111  181.06684
| 23>  H    8  7  1   1.08045 119.51700  358.83423
| 24>  H    9  8  7   1.08053 119.79426  179.69915
| 25>  H   10  9  8   1.08010 120.17010  180.13148
| 26>  H   11 10  9   1.08054 119.99775  180.21436
| 27>  H   12 11 10   1.08043 119.84090  181.06359
| 28> **                         ****END OF INPUT****
 Total Charge           Charge          ....    0
 Multiplicity           Mult            ....    1
 Number of Electrons    NEL             ....   82
 Basis Dimension        Dim             ....  188

ORBITAL ENERGIES
----------------

  NO   OCC          E(Eh)            E(eV)
   0   2.0000     -10.273290      -279.5504
   1   2.0000     -10.273114      -279.5456
   2   2.0000     -10.263987      -279.2973
   3   2.0000     -10.263983      -279.2972
   4   2.0000     -10.263928      -279.2957
   5   2.0000     -10.263927      -279.2957
   6   2.0000     -10.262342      -279.2525
   7   2.0000     -10.262337      -279.2524
   8   2.0000     -10.262257      -279.2502
   9   2.0000     -10.262242      -279.2498
  10   2.0000     -10.262225      -279.2493
  11   2.0000     -10.262215      -279.2491
  12   2.0000      -1.005106       -27.3503
  13   2.0000      -0.980089       -26.6696
  14   2.0000      -0.908483       -24.7211
  15   2.0000      -0.882573       -24.0160
  16   2.0000      -0.869802       -23.6685
  17   2.0000      -0.845746       -23.0139
  18   2.0000      -0.746980       -20.3264
  19   2.0000      -0.745400       -20.2834
  20   2.0000      -0.702792       -19.1239
  21   2.0000      -0.693932       -18.8829
  22   2.0000      -0.655624       -17.8404
  23   2.0000      -0.607759       -16.5380
  24   2.0000      -0.588948       -16.0261
  25   2.0000      -0.573969       -15.6185
  26   2.0000      -0.542889       -14.7728
  27   2.0000      -0.540659       -14.7121
  28   2.0000      -0.532466       -14.4891
  29   2.0000      -0.526592       -14.3293
  30   2.0000      -0.513571       -13.9750
  31   2.0000      -0.503264       -13.6945
  32   2.0000      -0.469095       -12.7647
  33   2.0000      -0.458893       -12.4871
  34   2.0000      -0.457709       -12.4549
  35   2.0000      -0.434873       -11.8335
  36   2.0000      -0.422120       -11.4865
  37   2.0000      -0.378917       -10.3108
  38   2.0000      -0.345902        -9.4125
  39   2.0000      -0.339502        -9.2383
  40   2.0000      -0.300686        -8.1821
  41   0.0000       0.046664         1.2698
  42   0.0000       0.075658         2.0588
  43   0.0000       0.100158         2.7254
  44   0.0000       0.134695         3.6652
  45   0.0000       0.180278         4.9056

MULLIKEN ATOMIC CHARGES
-----------------------
   0 C :    0.070227
   1 C :   -0.188519
   2 C :   -0.166857
   3 C :   -0.155134
   4 C :   -0.166838
   5 C :   -0.188238
   6 C :    0.070229
   7 C :   -0.188238
   8 C :   -0.166832
   9 C :   -0.155138
  10 C :   -0.166848
  11 C :   -0.188531
  12 H :    0.157488
  13 H :    0.160585
  14 H :    0.159245
  15 H :    0.160596
  16 H :    0.157446
  17 H :    0.157442
  18 H :    0.160600
  19 H :    0.159243
  20 H :    0.160586
  21 H :    0.157487
Sum of atomic charges:    0.0000000

LOEWDIN ATOMIC CHARGES
----------------------
   0 C :   -0.017233
   1 C :   -0.131798
   2 C :   -0.131250
   3 C :   -0.138194
   4 C :   -0.131278
   5 C :   -0.131768
   6 C :   -0.017238
   7 C :   -0.131765
   8 C :   -0.131283
   9 C :   -0.138192
  10 C :   -0.131251
  11 C :   -0.131799
  12 H :    0.135293
  13 H :    0.137051
  14 H :    0.136814
  15 H :    0.137059
  16 H :    0.135305
  17 H :    0.135306
  18 H :    0.137062
  19 H :    0.136812
  20 H :    0.137052
  21 H :    0.135294

  Mayer bond orders larger than 0.100000
B(  0-C ,  1-C ) :   1.4298 B(  0-C ,  5-C ) :   1.4299 B(  0-C ,  6-C ) :   1.0504
B(  1-C ,  2-C ) :   1.4504 B(  1-C , 12-H ) :   0.9161 B(  2-C ,  3-C ) :   1.4542
B(  2-C , 13-H ) :   0.9346 B(  3-C ,  4-C ) :   1.4542 B(  3-C , 14-H ) :   0.9355
B(  4-C ,  5-C ) :   1.4503 B(  4-C , 15-H ) :   0.9346 B(  5-C , 16-H ) :   0.9161
B(  6-C ,  7-C ) :   1.4300 B(  6-C , 11-C ) :   1.4298 B(  7-C ,  8-C ) :   1.4503
B(  7-C , 17-H ) :   0.9161 B(  8-C ,  9-C ) :   1.4542 B(  8-C , 18-H ) :   0.9346
B(  9-C , 10-C ) :   1.4542 B(  9-C , 19-H ) :   0.9355 B( 10-C , 11-C ) :   1.4504
B( 10-C , 20-H ) :   0.9346 B( 11-C , 21-H ) :   0.9161

FINAL SINGLE POINT ENERGY      -463.161689948581
FINAL SINGLE POINT ENERGY      -463.163297392723
FINAL SINGLE POINT ENERGY      -463.166197264785
FINAL SINGLE POINT ENERGY      -463.167054300507
FINAL SINGLE POINT ENERGY      -463.165883485463
FINAL SINGLE POINT ENERGY      -463.164305122207
FINAL SINGLE POINT ENERGY      -463.163627719409
FINAL SINGLE POINT ENERGY      -463.164359625091
FINAL SINGLE POINT ENERGY      -463.166026812916
FINAL SINGLE POINT ENERGY      -463.167344471346
FINAL SINGLE POINT ENERGY      -463.167054320945
FINAL SINGLE POINT ENERGY      -463.165883259313
FINAL SINGLE POINT ENERGY      -463.164304874961
FINAL SINGLE POINT ENERGY      -463.163627533491
FINAL SINGLE POINT ENERGY      -463.164359561251
FINAL SINGLE POINT ENERGY      -463.166026979896
FINAL SINGLE POINT ENERGY      -463.167344482049
FINAL SINGLE POINT ENERGY      -463.166689432424
FINAL SINGLE POINT ENERGY      -463.163805801542

CARTESIAN COORDINATES (ANGSTROEM)
---------------------------------
  C      0.000000    0.000000    0.000000
  C      1.392910    0.000000    0.000000
  C      2.097269    1.189673    0.000000
  C      1.422475    2.398897   -0.004344
  C      0.037759    2.410886   -0.006721
  C     -0.668193    1.222177   -0.002402
  C     -0.750413   -1.265321    0.002809
  C     -0.082133   -2.487447    0.005523
  C     -0.787964   -3.676248    0.005235
  C     -2.172682   -3.664343    0.006967
  C     -2.847578   -2.455157    0.006665
  C     -2.143311   -1.265426    0.002313
  H      1.925245   -0.939965    0.020888
  H      3.177692    1.173939    0.005254
  H      1.973367    3.327946   -0.005843
  H     -0.494353    3.351310   -0.013647
  H     -1.748340    1.238298   -0.021737
  H      0.998028   -2.503544   -0.013570
  H     -0.255778   -4.616628    0.002437
  H     -2.723512   -4.593427    0.008884
  H     -3.927994   -2.439496    0.011512
  H     -2.675730   -0.325445    0.019497

FINAL SINGLE POINT ENERGY      -463.161690008854

DIPOLE MOMENT
-------------
                                X             Y             Z
Electronic contribution:     -0.00001       0.00031      -0.00016
Nuclear contribution   :      0.00015      -0.00008       0.00027
                        -----------------------------------------
Total Dipole Moment    :      0.00015       0.00023       0.00010
                        -----------------------------------------
Magnitude (a.u.)       :      0.00029
Magnitude (Debye)      :      0.00075

Rotational constants in cm-1:     0.096559     0.018984     0.015865
Rotational constants in MHz :  2894.774944   569.120379   475.615163

                             ****ORCA TERMINATED NORMALLY****
TOTAL RUN TIME: 0 days 0 hours 41 minutes 5 seconds 894 msec
