                         Program Version 4.2.0 -  RELEASE  -
|  1> # ORCA input file
|  2> # energy: -30.691430556625 gnorm: 0.000986795653 xtb: 6.2.3 (conda-forge)
|  3> ! RKS wB97x 6-31g(d) TightSCF Grid4 Opt
|  4> * xyz 0 1
|  5>    N       -4.85644        -1.10810         0.12616
|  6>    C       -3.40438        -1.03400         0.18975
|  7>    C       -2.94331        -0.50952         1.53914
|  8>    O       -1.82205        -0.04663         1.71501
|  9>    H       -2.99768        -2.04602         0.09088
| 10>    H       -2.93648        -0.41483        -0.58978
| 11>    H       -5.25169        -0.18064         0.00531
| 12>    H       -5.14996        -1.67019        -0.66422
| 13>    N       -3.85322        -0.62351         2.51243
| 14>    C       -3.66597        -0.09293         3.84857
| 15>    C       -2.64084        -0.89379         4.68432
| 16>    O       -2.94016        -1.41390         5.72122
| 17>    H       -3.29213         0.93689         3.77643
| 18>    H       -4.62154        -0.09700         4.37156
| 19>    H       -4.73070        -1.05776         2.26033
| 20>    O       -1.42297        -0.93047         4.17962
| 21>    H       -1.36509        -0.48606         3.28989
| 22> *
| 23>
| 24>                          ****END OF INPUT****
 Total Charge           Charge          ....    0
 Multiplicity           Mult            ....    1
 Number of Electrons    NEL             ....   70
FINAL SINGLE POINT ENERGY      -492.315001678525
FINAL SINGLE POINT ENERGY      -492.314953453455
FINAL SINGLE POINT ENERGY      -492.316254768111
FINAL SINGLE POINT ENERGY      -492.316451554224
FINAL SINGLE POINT ENERGY      -492.316503368258
FINAL SINGLE POINT ENERGY      -492.316628251737
FINAL SINGLE POINT ENERGY      -492.316677365044
FINAL SINGLE POINT ENERGY      -492.316720009746
FINAL SINGLE POINT ENERGY      -492.316743266641
FINAL SINGLE POINT ENERGY      -492.316751740465
FINAL SINGLE POINT ENERGY      -492.316753776619
                    ***********************HURRAY********************

CARTESIAN COORDINATES (ANGSTROEM)
---------------------------------
  N     -4.860760   -1.158886    0.112594
  C     -3.418418   -0.956887    0.175823
  C     -2.960209   -0.465190    1.541516
  O     -1.818266   -0.028378    1.709966
  H     -2.911810   -1.914199    0.011062
  H     -3.010669   -0.255943   -0.564553
  H     -5.331421   -0.310259   -0.184438
  H     -5.097726   -1.882196   -0.556477
  N     -3.865032   -0.570743    2.528034
  C     -3.622708   -0.061855    3.866131
  C     -2.661355   -0.919257    4.700708
  O     -2.975695   -1.376007    5.769997
  H     -3.207562    0.951326    3.788130
  H     -4.569842   -0.015672    4.403278
  H     -4.754895   -0.982082    2.271625
  O     -1.448986   -1.096057    4.173882
  H     -1.379256   -0.626176    3.309342

 Multiplicity           Mult            ....    1
 Number of Electrons    NEL             ....   70
 Basis Dimension        Dim             ....  142

ORBITAL ENERGIES
----------------

  NO   OCC          E(Eh)            E(eV)
   0   2.0000     -19.231516      -523.3161
   1   2.0000     -19.204969      -522.5938
   2   2.0000     -19.185238      -522.0569
   3   2.0000     -14.452797      -393.2806
   4   2.0000     -14.425362      -392.5341
   5   2.0000     -10.390274      -282.7337
   6   2.0000     -10.388249      -282.6786
   7   2.0000     -10.321368      -280.8587
   8   2.0000     -10.320097      -280.8241
   9   2.0000      -1.213541       -33.0221
  10   2.0000      -1.184532       -32.2327
  11   2.0000      -1.125133       -30.6164
  12   2.0000      -1.077522       -29.3209
  13   2.0000      -1.044391       -28.4193
  14   2.0000      -0.888360       -24.1735
  15   2.0000      -0.834281       -22.7020
  16   2.0000      -0.727780       -19.8039
  17   2.0000      -0.707056       -19.2400
  18   2.0000      -0.665948       -18.1214
  19   2.0000      -0.653395       -17.7798
  20   2.0000      -0.624768       -17.0008
  21   2.0000      -0.612655       -16.6712
  22   2.0000      -0.578286       -15.7360
  23   2.0000      -0.559342       -15.2205
  24   2.0000      -0.548477       -14.9248
  25   2.0000      -0.533590       -14.5197
  26   2.0000      -0.524753       -14.2793
  27   2.0000      -0.505108       -13.7447
  28   2.0000      -0.485991       -13.2245
  29   2.0000      -0.473163       -12.8754
  30   2.0000      -0.404887       -11.0175
  31   2.0000      -0.399237       -10.8638
  32   2.0000      -0.391207       -10.6453
  33   2.0000      -0.368197       -10.0192
  34   2.0000      -0.348852        -9.4928
  35   0.0000       0.093066         2.5325
  36   0.0000       0.119883         3.2622
  37   0.0000       0.151802         4.1308
  38   0.0000       0.190645         5.1877
  39   0.0000       0.208539         5.6746

MULLIKEN ATOMIC CHARGES
-----------------------
   0 N :   -0.774312
   1 C :   -0.264029
   2 C :    0.548698
   3 O :   -0.517732
   4 H :    0.207905
   5 H :    0.192198
   6 H :    0.332245
   7 H :    0.338578
   8 N :   -0.586527
   9 C :   -0.287332
  10 C :    0.563388
  11 O :   -0.413724
  12 H :    0.208317
  13 H :    0.207184
  14 H :    0.384150
  15 O :   -0.598415
  16 H :    0.459408
Sum of atomic charges:   -0.0000000

LOEWDIN ATOMIC CHARGES
----------------------
   0 N :   -0.484596
   1 C :   -0.207302
   2 C :    0.108939
   3 O :   -0.307667
   4 H :    0.158985
   5 H :    0.141969
   6 H :    0.239423
   7 H :    0.243396
   8 N :   -0.202270
   9 C :   -0.205934
  10 C :    0.123794
  11 O :   -0.221025
  12 H :    0.154315
  13 H :    0.158244
  14 H :    0.273704
  15 O :   -0.302963
  16 H :    0.328987

  Mayer bond orders larger than 0.100000
B(  0-N ,  1-C ) :   0.9885 B(  0-N ,  6-H ) :   0.8578 B(  0-N ,  7-H ) :   0.8542
B(  1-C ,  2-C ) :   0.9530 B(  1-C ,  4-H ) :   0.9288 B(  1-C ,  5-H ) :   0.9273
B(  2-C ,  3-O ) :   1.7216 B(  2-C ,  8-N ) :   1.2143 B(  3-O , 16-H ) :   0.1400
B(  8-N ,  9-C ) :   0.9104 B(  8-N , 14-H ) :   0.7777 B(  9-C , 10-C ) :   0.9252
B(  9-C , 12-H ) :   0.9198 B(  9-C , 13-H ) :   0.9321 B( 10-C , 11-O ) :   1.9823
B( 10-C , 15-O ) :   1.1433 B( 15-O , 16-H ) :   0.6386

FINAL SINGLE POINT ENERGY      -492.316754769687

DIPOLE MOMENT
-------------
                                X             Y             Z
Electronic contribution:      3.70340      -0.39660       6.24449
Nuclear contribution   :     -5.37276       0.84767      -8.68191
                        -----------------------------------------
Total Dipole Moment    :     -1.66936       0.45107      -2.43742
                        -----------------------------------------
Magnitude (a.u.)       :      2.98852
Magnitude (Debye)      :      7.59621

Rotational constants in cm-1:     0.116031     0.030196     0.026216
Rotational constants in MHz :  3478.511078   905.250715   785.926663

                             ****ORCA TERMINATED NORMALLY****
TOTAL RUN TIME: 0 days 0 hours 13 minutes 43 seconds 801 msec
