                         Program Version 4.2.0 -  RELEASE  -
|  1> # ORCA input file
|  2> # energy: -81.652130307813 gnorm: 0.000857615915 xtb: 6.2.3 (conda-forge)
|  3> ! RKS wB97x 6-31g(d) TightSCF Grid4 Opt
|  4> * xyz 0 1
|  5>  C         -1.3969060973       -1.2758561716       -0.2256029529
|  6>  O         -2.0404538814       -0.5848575743       -1.2443654264
|  7>  C         -2.9633105874        0.3819439086       -0.7152648186
|  8>  C         -2.7728524611        1.7365522917       -1.4045030617
|  9>  O         -1.5551968356        2.3537506826       -1.0995915182
| 10>  H         -0.8197260243        1.7557117008       -1.3256309293
| 11>  H         -3.5584783337        2.4110554571       -1.0574013899
| 12>  H         -2.8748564304        1.5852689982       -2.4871805996
| 13>  C         -2.7431778059        0.4096562070        0.8007854005
| 14>  O         -3.9532673838        0.6850190193        1.4422253132
| 15>  H         -3.8075713792        0.6859241028        2.3956148703
| 16>  C         -2.2012018228       -1.0104517534        1.0680948436
| 17>  O         -1.4545732874       -1.1798026551        2.2325730980
| 18>  H         -0.6326798350       -0.6780238803        2.1403952923
| 19>  H         -3.0505852378       -1.6991418205        1.1361058667
| 20>  H         -1.9730785972        1.1541086771        1.0572205512
| 21>  H         -3.9820985387        0.0257003553       -0.9147429438
| 22>  C         -1.2774295618       -2.7730637291       -0.5600300674
| 23>  O         -0.4346045588       -3.4078039730        0.3663469498
| 24>  H         -0.7351184303       -3.1940720019        1.2614837508
| 25>  H         -2.2797972643       -3.2180526277       -0.5730872657
| 26>  H         -0.8218579699       -2.9007581211       -1.5445058611
| 27>  O         -0.0899981422       -0.7646000217        0.0467272607
| 28>  C          0.7075771766       -0.3934491187       -1.0551080348
| 29>  O          0.8910888815        0.9928283447       -1.0619275566
| 30>  C          1.5428566075        1.4947971318        0.1103945684
| 31>  C          1.5823767810        3.0275935364        0.0287756645
| 32>  H          2.4002018399        3.3729691345        0.6643417046
| 33>  O          0.4240098258        3.6328238021        0.5231191034
| 34>  H         -0.3335240339        3.3922631479       -0.0325698646
| 35>  H          1.7787495305        3.3134939027       -1.0126242378
| 36>  C          2.9413804444        0.8795973550        0.2323571637
| 37>  O          3.5515281707        1.3568987936        1.3995141160
| 38>  H          4.3313919192        0.8077444187        1.5537728204
| 39>  C          2.8113258463       -0.6483709192        0.2661069670
| 40>  O          4.0997907571       -1.2114155698        0.3271429435
| 41>  H          4.0350912061       -2.1146404312       -0.0109365806
| 42>  C          2.0597496601       -1.1251282729       -0.9827292645
| 43>  O          1.9393574833       -2.5171542637       -1.0093849219
| 44>  H          1.2586581119       -2.8079273808       -0.3747780124
| 45>  H          2.6417302549       -0.8502540686       -1.8707626218
| 46>  H          2.2366728059       -0.9400685947        1.1622916078
| 47>  H          3.5353360159        1.1571273241       -0.6543726721
| 48>  H          0.9655849871        1.2148558692        1.0015760253
| 49>  H          0.1898523350       -0.6327836704       -1.9919645360
| 50> *
| 51>
| 52>                          ****END OF INPUT****
 Total Charge           Charge          ....    0
 Multiplicity           Mult            ....    1
 Number of Electrons    NEL             ....  182
FINAL SINGLE POINT ENERGY     -1297.612642113837
FINAL SINGLE POINT ENERGY     -1297.613923597001
FINAL SINGLE POINT ENERGY     -1297.609233900585
FINAL SINGLE POINT ENERGY     -1297.613656269999
FINAL SINGLE POINT ENERGY     -1297.613765655581
FINAL SINGLE POINT ENERGY     -1297.616632823986
FINAL SINGLE POINT ENERGY     -1297.616866755941
FINAL SINGLE POINT ENERGY     -1297.617025882130
FINAL SINGLE POINT ENERGY     -1297.617110432702
FINAL SINGLE POINT ENERGY     -1297.617170436663
FINAL SINGLE POINT ENERGY     -1297.617205550913
FINAL SINGLE POINT ENERGY     -1297.617222558530
FINAL SINGLE POINT ENERGY     -1297.617231043040
FINAL SINGLE POINT ENERGY     -1297.617233863006
                    ***********************HURRAY********************

CARTESIAN COORDINATES (ANGSTROEM)
---------------------------------
  C     -1.402830   -1.294823   -0.236925
  O     -2.031240   -0.575687   -1.254807
  C     -2.915497    0.427761   -0.704070
  C     -2.767771    1.722870   -1.481555
  O     -1.511245    2.344282   -1.339354
  H     -0.793984    1.706145   -1.507462
  H     -3.517327    2.428797   -1.110584
  H     -2.984017    1.519427   -2.540418
  C     -2.591320    0.481396    0.786674
  O     -3.734923    0.904125    1.484828
  H     -3.483729    1.048144    2.405828
  C     -2.187021   -0.972878    1.041571
  O     -1.466304   -1.246167    2.218909
  H     -0.602561   -0.816862    2.110458
  H     -3.101810   -1.575632    1.086196
  H     -1.734610    1.151292    0.962009
  H     -3.950757    0.075291   -0.814856
  C     -1.321388   -2.774798   -0.593954
  O     -0.532478   -3.465417    0.357923
  H     -0.803095   -3.164182    1.241256
  H     -2.336452   -3.189227   -0.663607
  H     -0.830926   -2.900622   -1.564720
  O     -0.085158   -0.821801    0.034462
  C      0.717493   -0.427058   -1.054939
  O      0.884276    0.967068   -1.031561
  C      1.526766    1.451933    0.166507
  C      1.393223    2.965028    0.211313
  H      2.132125    3.343423    0.923387
  O      0.125922    3.366519    0.676314
  H     -0.535199    3.188152   -0.016627
  H      1.626972    3.381287   -0.781176
  C      2.950875    0.903875    0.187331
  O      3.608848    1.393627    1.332556
  H      4.412280    0.862098    1.429627
  C      2.866525   -0.616197    0.224903
  O      4.181651   -1.127716    0.218714
  H      4.102863   -2.085813    0.100943
  C      2.062906   -1.147863   -0.955938
  O      1.915259   -2.546538   -0.897567
  H      1.222680   -2.772291   -0.244465
  H      2.626308   -0.932389   -1.871756
  H      2.352294   -0.897642    1.160675
  H      3.474029    1.210011   -0.734301
  H      0.992834    1.068032    1.045128
  H      0.217481   -0.658972   -1.998971

 Multiplicity           Mult            ....    1
 Number of Electrons    NEL             ....  182
 Basis Dimension        Dim             ....  366

ORBITAL ENERGIES
----------------

  NO   OCC          E(Eh)            E(eV)
   0   2.0000     -19.259021      -524.0646
   1   2.0000     -19.257407      -524.0207
   2   2.0000     -19.252557      -523.8887
   3   2.0000     -19.248125      -523.7681
   4   2.0000     -19.239376      -523.5300
   5   2.0000     -19.232549      -523.3443
   6   2.0000     -19.223194      -523.0897
   7   2.0000     -19.222021      -523.0578
   8   2.0000     -19.218375      -522.9586
   9   2.0000     -19.215256      -522.8737
  10   2.0000     -19.187358      -522.1145
  11   2.0000     -10.398054      -282.9454
  12   2.0000     -10.387355      -282.6543
  13   2.0000     -10.339949      -281.3643
  14   2.0000     -10.339148      -281.3425
  15   2.0000     -10.334264      -281.2096
  16   2.0000     -10.332377      -281.1583
  17   2.0000     -10.325129      -280.9611
  18   2.0000     -10.324271      -280.9377
  19   2.0000     -10.321989      -280.8756
  20   2.0000     -10.320855      -280.8447
  21   2.0000     -10.319893      -280.8186
  22   2.0000     -10.300406      -280.2883
  23   2.0000      -1.257377       -34.2150
  24   2.0000      -1.213214       -33.0132
  25   2.0000      -1.188757       -32.3477
  26   2.0000      -1.180125       -32.1128
  27   2.0000      -1.176508       -32.0144
  28   2.0000      -1.169050       -31.8115
  29   2.0000      -1.164919       -31.6991
  30   2.0000      -1.158359       -31.5205
  31   2.0000      -1.148164       -31.2431
  32   2.0000      -1.141397       -31.0590
  33   2.0000      -1.125744       -30.6331
  34   2.0000      -0.934367       -25.4254
  35   2.0000      -0.929294       -25.2874
  36   2.0000      -0.921773       -25.0827
  37   2.0000      -0.899171       -24.4677
  38   2.0000      -0.853300       -23.2195
  39   2.0000      -0.820614       -22.3301
  40   2.0000      -0.796019       -21.6608
  41   2.0000      -0.777627       -21.1603
  42   2.0000      -0.756522       -20.5860
  43   2.0000      -0.745756       -20.2930
  44   2.0000      -0.737769       -20.0757
  45   2.0000      -0.702988       -19.1293
  46   2.0000      -0.692481       -18.8434
  47   2.0000      -0.677256       -18.4291
  48   2.0000      -0.665339       -18.1048
  49   2.0000      -0.659082       -17.9345
  50   2.0000      -0.649533       -17.6747
  51   2.0000      -0.639434       -17.3999
  52   2.0000      -0.630702       -17.1623
  53   2.0000      -0.626044       -17.0355
  54   2.0000      -0.607627       -16.5344
  55   2.0000      -0.603649       -16.4261
  56   2.0000      -0.602050       -16.3826
  57   2.0000      -0.592900       -16.1336
  58   2.0000      -0.584372       -15.9016
  59   2.0000      -0.573192       -15.5974
  60   2.0000      -0.565008       -15.3746
  61   2.0000      -0.558843       -15.2069
  62   2.0000      -0.556818       -15.1518
  63   2.0000      -0.549218       -14.9450
  64   2.0000      -0.542792       -14.7701
  65   2.0000      -0.533349       -14.5132
  66   2.0000      -0.527747       -14.3607
  67   2.0000      -0.519047       -14.1240
  68   2.0000      -0.510512       -13.8917
  69   2.0000      -0.503760       -13.7080
  70   2.0000      -0.492575       -13.4037
  71   2.0000      -0.487398       -13.2628
  72   2.0000      -0.478844       -13.0300
  73   2.0000      -0.470437       -12.8012
  74   2.0000      -0.467365       -12.7176
  75   2.0000      -0.463434       -12.6107
  76   2.0000      -0.459289       -12.4979
  77   2.0000      -0.457766       -12.4565
  78   2.0000      -0.444019       -12.0824
  79   2.0000      -0.432462       -11.7679
  80   2.0000      -0.422574       -11.4988
  81   2.0000      -0.412851       -11.2342
  82   2.0000      -0.411007       -11.1841
  83   2.0000      -0.409209       -11.1351
  84   2.0000      -0.400835       -10.9073
  85   2.0000      -0.395922       -10.7736
  86   2.0000      -0.385492       -10.4898
  87   2.0000      -0.378691       -10.3047
  88   2.0000      -0.369528       -10.0554
  89   2.0000      -0.362868        -9.8742
  90   2.0000      -0.356153        -9.6914
  91   0.0000       0.125191         3.4066
  92   0.0000       0.151023         4.1095
  93   0.0000       0.151721         4.1285
  94   0.0000       0.165741         4.5100
  95   0.0000       0.175107         4.7649

MULLIKEN ATOMIC CHARGES
-----------------------
   0 C :    0.481013
   1 O :   -0.532900
   2 C :    0.076544
   3 C :   -0.050389
   4 O :   -0.678739
   5 H :    0.447457
   6 H :    0.183737
   7 H :    0.160384
   8 C :    0.077391
   9 O :   -0.651902
  10 H :    0.426857
  11 C :    0.043537
  12 O :   -0.656036
  13 H :    0.430413
  14 H :    0.178937
  15 H :    0.162817
  16 H :    0.171662
  17 C :   -0.067903
  18 O :   -0.646893
  19 H :    0.428072
  20 H :    0.163629
  21 H :    0.184465
  22 O :   -0.562631
  23 C :    0.304881
  24 O :   -0.530580
  25 C :    0.069739
  26 C :   -0.067947
  27 H :    0.189442
  28 O :   -0.675235
  29 H :    0.443315
  30 H :    0.143976
  31 C :    0.127771
  32 O :   -0.662750
  33 H :    0.429807
  34 C :    0.089660
  35 O :   -0.674381
  36 H :    0.426481
  37 C :    0.086303
  38 O :   -0.681019
  39 H :    0.438036
  40 H :    0.170009
  41 H :    0.126462
  42 H :    0.144018
  43 H :    0.148869
  44 H :    0.183622
Sum of atomic charges:   -0.0000000

LOEWDIN ATOMIC CHARGES
----------------------
   0 C :    0.102764
   1 O :   -0.209093
   2 C :   -0.022476
   3 C :   -0.115577
   4 O :   -0.409957
   5 H :    0.312605
   6 H :    0.143297
   7 H :    0.124333
   8 C :   -0.046448
   9 O :   -0.390499
  10 H :    0.329249
  11 C :   -0.053974
  12 O :   -0.384968
  13 H :    0.319516
  14 H :    0.140063
  15 H :    0.127012
  16 H :    0.135056
  17 C :   -0.124614
  18 O :   -0.398019
  19 H :    0.318297
  20 H :    0.126467
  21 H :    0.140193
  22 O :   -0.225819
  23 C :    0.053888
  24 O :   -0.214927
  25 C :   -0.029698
  26 C :   -0.118556
  27 H :    0.144491
  28 O :   -0.429191
  29 H :    0.307356
  30 H :    0.116256
  31 C :   -0.034949
  32 O :   -0.397170
  33 H :    0.326760
  34 C :   -0.050796
  35 O :   -0.406362
  36 H :    0.326200
  37 C :   -0.055738
  38 O :   -0.406183
  39 H :    0.313394
  40 H :    0.137192
  41 H :    0.108895
  42 H :    0.117333
  43 H :    0.119846
  44 H :    0.134552

  Mayer bond orders larger than 0.100000
B(  0-C ,  1-O ) :   0.9378 B(  0-C , 11-C ) :   0.9339 B(  0-C , 17-C ) :   0.9636
B(  0-C , 22-O ) :   0.8521 B(  1-O ,  2-C ) :   0.8582 B(  2-C ,  3-C ) :   0.9846
B(  2-C ,  8-C ) :   0.9598 B(  2-C , 16-H ) :   0.9163 B(  3-C ,  4-O ) :   0.9628
B(  3-C ,  6-H ) :   0.9289 B(  3-C ,  7-H ) :   0.9281 B(  4-O ,  5-H ) :   0.6737
B(  4-O , 29-H ) :   0.1095 B(  8-C ,  9-O ) :   0.9499 B(  8-C , 11-C ) :   0.9483
B(  8-C , 15-H ) :   0.8994 B(  9-O , 10-H ) :   0.7731 B( 11-C , 12-O ) :   0.9518
B( 11-C , 14-H ) :   0.9225 B( 12-O , 13-H ) :   0.7448 B( 17-C , 18-O ) :   0.9383
B( 17-C , 20-H ) :   0.9266 B( 17-C , 21-H ) :   0.9247 B( 18-O , 19-H ) :   0.7350
B( 22-O , 23-C ) :   0.8693 B( 23-C , 24-O ) :   0.9288 B( 23-C , 37-C ) :   0.9430
B( 23-C , 44-H ) :   0.9165 B( 24-O , 25-C ) :   0.8401 B( 25-C , 26-C ) :   0.9810
B( 25-C , 31-C ) :   0.9404 B( 25-C , 43-H ) :   0.9114 B( 26-C , 27-H ) :   0.9271
B( 26-C , 28-O ) :   0.9948 B( 26-C , 30-H ) :   0.9288 B( 28-O , 29-H ) :   0.6840
B( 31-C , 32-O ) :   0.9331 B( 31-C , 34-C ) :   0.9664 B( 31-C , 42-H ) :   0.9167
B( 32-O , 33-H ) :   0.7595 B( 34-C , 35-O ) :   0.9317 B( 34-C , 37-C ) :   0.9510
B( 34-C , 41-H ) :   0.9170 B( 35-O , 36-H ) :   0.7588 B( 37-C , 38-O ) :   0.9705
B( 37-C , 40-H ) :   0.9199 B( 38-O , 39-H ) :   0.6844

FINAL SINGLE POINT ENERGY     -1297.617234882823

DIPOLE MOMENT
-------------
                                X             Y             Z
Electronic contribution:      0.70915      -2.85383       0.96417
Nuclear contribution   :     -1.40767       1.99211      -1.17859
                        -----------------------------------------
Total Dipole Moment    :     -0.69852      -0.86172      -0.21442
                        -----------------------------------------
Magnitude (a.u.)       :      1.12981
Magnitude (Debye)      :      2.87174

Rotational constants in cm-1:     0.011461     0.007962     0.005885
Rotational constants in MHz :   343.587380   238.682273   176.432578

                             ****ORCA TERMINATED NORMALLY****
TOTAL RUN TIME: 0 days 3 hours 56 minutes 32 seconds 541 msec
