                         Program Version 4.0.0.2 - RELEASE -
|  1> ! WB97X-D3 6-31G(d) VerySlowConv
|  2> ! KDIIS NOSOSCF
|  3> %base "Scan_1"
|  4>
|  5> %scf
|  6> maxiter 999
|  7> end
|  8>
|  9> * xyz 0 1
| 10> C         -3.838404281850    2.343288270020    0.034603577406
| 11> O         -2.772051795797    2.251042689452   -0.072757455122
| 12> H         -4.343700006578    3.366295820933   -0.154461764476
| 13> H         -4.337234279395    2.054128247493    1.037184766147
| 14> H         -4.398541230811    1.688225647773   -0.683671696963
| 15> H         -2.197178405569    2.788649324328    0.516102573009
| 16> **                         ****END OF INPUT****

CARTESIAN COORDINATES (ANGSTROEM)
---------------------------------
  C     -3.838404    2.343288    0.034604
  O     -2.772052    2.251043   -0.072757
  H     -4.343700    3.366296   -0.154462
  H     -4.337234    2.054128    1.037185
  H     -4.398541    1.688226   -0.683672
  H     -2.197178    2.788649    0.516103

 Total Charge           Charge          ....    0
 Multiplicity           Mult            ....    1
 Number of Electrons    NEL             ....   18
 Basis Dimension        Dim             ....   36

ORBITAL ENERGIES
----------------

  NO   OCC          E(Eh)            E(eV)
   0   2.0000     -19.264536      -524.2147
   1   2.0000     -10.311706      -280.5958
   2   2.0000      -1.290389       -35.1133
   3   2.0000      -0.803675       -21.8691
   4   2.0000      -0.667627       -18.1670
   5   2.0000      -0.601531       -16.3685
   6   2.0000      -0.597209       -16.2509
   7   2.0000      -0.372899       -10.1471
   8   2.0000      -0.328682        -8.9439
   9   0.0000       0.152174         4.1409
  10   0.0000       0.224894         6.1197
  11   0.0000       0.278435         7.5766
  12   0.0000       0.291572         7.9341
  13   0.0000       0.372250        10.1295

MULLIKEN ATOMIC CHARGES
-----------------------
   0 C :   -0.279327
   1 O :   -0.374743
   2 H :    0.049355
   3 H :    0.049498
   4 H :    0.124429
   5 H :    0.430789
Sum of atomic charges:   -0.0000000

LOEWDIN ATOMIC CHARGES
----------------------
   0 C :   -0.323291
   1 O :   -0.183511
   2 H :    0.034263
   3 H :    0.034170
   4 H :    0.096653
   5 H :    0.341715

  Mayer bond orders larger than 0.1
B(  0-C ,  1-O ) :   1.2092 B(  0-C ,  2-H ) :   0.9242 B(  0-C ,  3-H ) :   0.9241
B(  0-C ,  4-H ) :   0.9216 B(  1-O ,  5-H ) :   0.7538

Dispersion correction           -0.000185249
FINAL SINGLE POINT ENERGY      -115.533092081914

DIPOLE MOMENT
-------------
                                X             Y             Z
Electronic contribution:      2.41288      -0.28030      -0.32251
Nuclear contribution   :     -1.92713       0.60178       0.67310
                        -----------------------------------------
Total Dipole Moment    :      0.48575       0.32149       0.35059
                        -----------------------------------------
Magnitude (a.u.)       :      0.67987
Magnitude (Debye)      :      1.72809

                             ****ORCA TERMINATED NORMALLY****
TOTAL RUN TIME: 0 days 0 hours 0 minutes 5 seconds 461 msec
