                         Program Version 4.0.0.2 - RELEASE -
|  1> ! WB97X-D3 6-31G(d) VerySlowConv
|  2> ! KDIIS NOSOSCF
|  3> %base "Scan_10"
|  4>
|  5> %scf
|  6> maxiter 999
|  7> end
|  8>
|  9> * xyz 0 1
| 10> C         -4.002282956180    2.349150144876    0.041947497747
| 11> O         -2.598755874827    2.230973483257   -0.095796712010
| 12> H         -4.339808236051    3.370678810328   -0.158520607388
| 13> H         -4.333299031495    2.049688332271    1.041138455661
| 14> H         -4.439402416445    1.678383194049   -0.694287890122
| 15> H         -2.173561485003    2.812756035219    0.542519256112
| 16> **                         ****END OF INPUT****

CARTESIAN COORDINATES (ANGSTROEM)
---------------------------------
  C     -4.002283    2.349150    0.041947
  O     -2.598756    2.230973   -0.095797
  H     -4.339808    3.370679   -0.158521
  H     -4.333299    2.049688    1.041138
  H     -4.439402    1.678383   -0.694288
  H     -2.173561    2.812756    0.542519

 Total Charge           Charge          ....    0
 Multiplicity           Mult            ....    1
 Number of Electrons    NEL             ....   18
 Basis Dimension        Dim             ....   36

ORBITAL ENERGIES
----------------

  NO   OCC          E(Eh)            E(eV)
   0   2.0000     -19.236935      -523.4636
   1   2.0000     -10.314380      -280.6685
   2   2.0000      -1.124973       -30.6121
   3   2.0000      -0.791268       -21.5315
   4   2.0000      -0.602800       -16.4030
   5   2.0000      -0.536046       -14.5866
   6   2.0000      -0.518594       -14.1117
   7   2.0000      -0.423261       -11.5175
   8   2.0000      -0.358739        -9.7618
   9   0.0000       0.176853         4.8124
  10   0.0000       0.231425         6.2974
  11   0.0000       0.264069         7.1857
  12   0.0000       0.271117         7.3775
  13   0.0000       0.303779         8.2662

MULLIKEN ATOMIC CHARGES
-----------------------
   0 C :   -0.234774
   1 O :   -0.648513
   2 H :    0.146474
   3 H :    0.146597
   4 H :    0.178942
   5 H :    0.411274
Sum of atomic charges:   -0.0000000

LOEWDIN ATOMIC CHARGES
----------------------
   0 C :   -0.234212
   1 O :   -0.434125
   2 H :    0.110130
   3 H :    0.109824
   4 H :    0.134219
   5 H :    0.314164

  Mayer bond orders larger than 0.1
B(  0-C ,  1-O ) :   0.9588 B(  0-C ,  2-H ) :   0.9423 B(  0-C ,  3-H ) :   0.9421
B(  0-C ,  4-H ) :   0.9503 B(  1-O ,  5-H ) :   0.7868

Dispersion correction           -0.000236112
FINAL SINGLE POINT ENERGY      -115.677645781441

DIPOLE MOMENT
-------------
                                X             Y             Z
Electronic contribution:      1.73569      -0.22612      -0.25981
Nuclear contribution   :     -2.02684       0.64261       0.71860
                        -----------------------------------------
Total Dipole Moment    :     -0.29115       0.41648       0.45879
                        -----------------------------------------
Magnitude (a.u.)       :      0.68463
Magnitude (Debye)      :      1.74018

                             ****ORCA TERMINATED NORMALLY****
TOTAL RUN TIME: 0 days 0 hours 0 minutes 4 seconds 141 msec
