                         Program Version 4.0.0.2 - RELEASE -
|  1> ! WB97X-D3 6-31G(d) VerySlowConv
|  2> ! KDIIS NOSOSCF
|  3> %base "Scan_11"
|  4>
|  5> %scf
|  6> maxiter 999
|  7> end
|  8>
|  9> * xyz 0 1
| 10> C         -4.034080323992    2.349521795282    0.042529264491
| 11> O         -2.562552909931    2.228209822388   -0.099036317303
| 12> H         -4.342027357794    3.374112868595   -0.160478063863
| 13> H         -4.335489947549    2.047398183972    1.044379443923
| 14> H         -4.449351397649    1.675118968092   -0.697828272111
| 15> H         -2.163608063085    2.817268361670    0.547433944863
| 16> **                         ****END OF INPUT****

CARTESIAN COORDINATES (ANGSTROEM)
---------------------------------
  C     -4.034080    2.349522    0.042529
  O     -2.562553    2.228210   -0.099036
  H     -4.342027    3.374113   -0.160478
  H     -4.335490    2.047398    1.044379
  H     -4.449351    1.675119   -0.697828
  H     -2.163608    2.817268    0.547434

 Total Charge           Charge          ....    0
 Multiplicity           Mult            ....    1
 Number of Electrons    NEL             ....   18
 Basis Dimension        Dim             ....   36

ORBITAL ENERGIES
----------------

  NO   OCC          E(Eh)            E(eV)
   0   2.0000     -19.234694      -523.4026
   1   2.0000     -10.318524      -280.7813
   2   2.0000      -1.105000       -30.0686
   3   2.0000      -0.794105       -21.6087
   4   2.0000      -0.589041       -16.0286
   5   2.0000      -0.533854       -14.5269
   6   2.0000      -0.511094       -13.9076
   7   2.0000      -0.426817       -11.6143
   8   2.0000      -0.359065        -9.7707
   9   0.0000       0.174101         4.7375
  10   0.0000       0.226436         6.1616
  11   0.0000       0.261751         7.1226
  12   0.0000       0.268685         7.3113
  13   0.0000       0.282391         7.6843

MULLIKEN ATOMIC CHARGES
-----------------------
   0 C :   -0.244654
   1 O :   -0.666742
   2 H :    0.158105
   3 H :    0.158210
   4 H :    0.186077
   5 H :    0.409004
Sum of atomic charges:    0.0000000

LOEWDIN ATOMIC CHARGES
----------------------
   0 C :   -0.224426
   1 O :   -0.461606
   2 H :    0.118611
   3 H :    0.118307
   4 H :    0.138881
   5 H :    0.310233

  Mayer bond orders larger than 0.1
B(  0-C ,  1-O ) :   0.9445 B(  0-C ,  2-H ) :   0.9426 B(  0-C ,  3-H ) :   0.9424
B(  0-C ,  4-H ) :   0.9502 B(  1-O ,  5-H ) :   0.7884

Dispersion correction           -0.000253326
FINAL SINGLE POINT ENERGY      -115.674716977478

DIPOLE MOMENT
-------------
                                X             Y             Z
Electronic contribution:      1.66002      -0.22426      -0.25734
Nuclear contribution   :     -2.05312       0.64920       0.72600
                        -----------------------------------------
Total Dipole Moment    :     -0.39309       0.42494       0.46866
                        -----------------------------------------
Magnitude (a.u.)       :      0.74481
Magnitude (Debye)      :      1.89316

                             ****ORCA TERMINATED NORMALLY****
TOTAL RUN TIME: 0 days 0 hours 0 minutes 5 seconds 162 msec
