                         Program Version 4.0.0.2 - RELEASE -
|  1> ! WB97X-D3 6-31G(d) VerySlowConv
|  2> ! KDIIS NOSOSCF
|  3> %base "Scan_12"
|  4>
|  5> %scf
|  6> maxiter 999
|  7> end
|  8>
|  9> * xyz 0 1
| 10> C         -4.069279439373    2.349835691629    0.043065894155
| 11> O         -2.521729603804    2.225718657005   -0.102000936991
| 12> H         -4.345885640884    3.377932342369   -0.162686448743
| 13> H         -4.339316668794    2.044812405830    1.047987996183
| 14> H         -4.460747537848    1.671387855735   -0.701874908755
| 15> H         -2.150151109296    2.821943047431    0.552508404149
| 16> **                         ****END OF INPUT****

CARTESIAN COORDINATES (ANGSTROEM)
---------------------------------
  C     -4.069279    2.349836    0.043066
  O     -2.521730    2.225719   -0.102001
  H     -4.345886    3.377932   -0.162686
  H     -4.339317    2.044812    1.047988
  H     -4.460748    1.671388   -0.701875
  H     -2.150151    2.821943    0.552508

 Total Charge           Charge          ....    0
 Multiplicity           Mult            ....    1
 Number of Electrons    NEL             ....   18
 Basis Dimension        Dim             ....   36

ORBITAL ENERGIES
----------------

  NO   OCC          E(Eh)            E(eV)
   0   2.0000     -19.232535      -523.3439
   1   2.0000     -10.323498      -280.9167
   2   2.0000      -1.086454       -29.5639
   3   2.0000      -0.797676       -21.7059
   4   2.0000      -0.575823       -15.6689
   5   2.0000      -0.533555       -14.5188
   6   2.0000      -0.505178       -13.7466
   7   2.0000      -0.427375       -11.6295
   8   2.0000      -0.358132        -9.7453
   9   0.0000       0.165857         4.5132
  10   0.0000       0.215113         5.8535
  11   0.0000       0.258373         7.0307
  12   0.0000       0.266341         7.2475
  13   0.0000       0.268946         7.3184

MULLIKEN ATOMIC CHARGES
-----------------------
   0 C :   -0.261030
   1 O :   -0.677736
   2 H :    0.169295
   3 H :    0.169382
   4 H :    0.193265
   5 H :    0.406824
Sum of atomic charges:   -0.0000000

LOEWDIN ATOMIC CHARGES
----------------------
   0 C :   -0.217322
   1 O :   -0.485290
   2 H :    0.126572
   3 H :    0.126284
   4 H :    0.143508
   5 H :    0.306247

  Mayer bond orders larger than 0.1
B(  0-C ,  1-O ) :   0.9364 B(  0-C ,  2-H ) :   0.9421 B(  0-C ,  3-H ) :   0.9419
B(  0-C ,  4-H ) :   0.9491 B(  1-O ,  5-H ) :   0.7898

Dispersion correction           -0.000275873
FINAL SINGLE POINT ENERGY      -115.667140172374

DIPOLE MOMENT
-------------
                                X             Y             Z
Electronic contribution:      1.58920      -0.22271      -0.25522
Nuclear contribution   :     -2.08421       0.65519       0.73277
                        -----------------------------------------
Total Dipole Moment    :     -0.49500       0.43248       0.47754
                        -----------------------------------------
Magnitude (a.u.)       :      0.81247
Magnitude (Debye)      :      2.06515

                             ****ORCA TERMINATED NORMALLY****
TOTAL RUN TIME: 0 days 0 hours 0 minutes 5 seconds 507 msec
