                         Program Version 4.0.0.2 - RELEASE -
|  1> ! WB97X-D3 6-31G(d) VerySlowConv
|  2> ! KDIIS NOSOSCF
|  3> %base "Scan_13"
|  4>
|  5> %scf
|  6> maxiter 999
|  7> end
|  8>
|  9> * xyz 0 1
| 10> C         -4.107736857704    2.350370917601    0.043863916718
| 11> O         -2.476520222420    2.223443966493   -0.104750984144
| 12> H         -4.352118840120    3.381996795497   -0.165047887286
| 13> H         -4.345516168568    2.042037930767    1.051837337331
| 14> H         -4.472703528453    1.667344758275   -0.706262046599
| 15> H         -2.132514382734    2.826435631368    0.557359663981
| 16> **                         ****END OF INPUT****

CARTESIAN COORDINATES (ANGSTROEM)
---------------------------------
  C     -4.107737    2.350371    0.043864
  O     -2.476520    2.223444   -0.104751
  H     -4.352119    3.381997   -0.165048
  H     -4.345516    2.042038    1.051837
  H     -4.472704    1.667345   -0.706262
  H     -2.132514    2.826436    0.557360

 Total Charge           Charge          ....    0
 Multiplicity           Mult            ....    1
 Number of Electrons    NEL             ....   18
 Basis Dimension        Dim             ....   36

ORBITAL ENERGIES
----------------

  NO   OCC          E(Eh)            E(eV)
   0   2.0000     -19.230512      -523.2888
   1   2.0000     -10.328844      -281.0621
   2   2.0000      -1.069936       -29.1144
   3   2.0000      -0.801749       -21.8167
   4   2.0000      -0.564495       -15.3607
   5   2.0000      -0.534930       -14.5562
   6   2.0000      -0.500946       -13.6314
   7   2.0000      -0.424107       -11.5405
   8   2.0000      -0.356173        -9.6920
   9   0.0000       0.147094         4.0026
  10   0.0000       0.203373         5.5341
  11   0.0000       0.254691         6.9305
  12   0.0000       0.264196         7.1891
  13   0.0000       0.264454         7.1962

MULLIKEN ATOMIC CHARGES
-----------------------
   0 C :   -0.283588
   1 O :   -0.681160
   2 H :    0.179784
   3 H :    0.179843
   4 H :    0.200475
   5 H :    0.404646
Sum of atomic charges:   -0.0000000

LOEWDIN ATOMIC CHARGES
----------------------
   0 C :   -0.213941
   1 O :   -0.503805
   2 H :    0.133830
   3 H :    0.133569
   4 H :    0.148054
   5 H :    0.302293

  Mayer bond orders larger than 0.1
B(  0-C ,  1-O ) :   0.9337 B(  0-C ,  2-H ) :   0.9409 B(  0-C ,  3-H ) :   0.9407
B(  0-C ,  4-H ) :   0.9471 B(  1-O ,  5-H ) :   0.7913

Dispersion correction           -0.000305293
FINAL SINGLE POINT ENERGY      -115.655595452852

DIPOLE MOMENT
-------------
                                X             Y             Z
Electronic contribution:      1.52546      -0.22097      -0.25291
Nuclear contribution   :     -2.11981       0.66011       0.73837
                        -----------------------------------------
Total Dipole Moment    :     -0.59435       0.43913       0.48546
                        -----------------------------------------
Magnitude (a.u.)       :      0.88417
Magnitude (Debye)      :      2.24739

                             ****ORCA TERMINATED NORMALLY****
TOTAL RUN TIME: 0 days 0 hours 0 minutes 4 seconds 662 msec
