                         Program Version 4.0.0.2 - RELEASE -
|  1> ! WB97X-D3 6-31G(d) VerySlowConv
|  2> ! KDIIS NOSOSCF
|  3> %base "Scan_14"
|  4>
|  5> %scf
|  6> maxiter 999
|  7> end
|  8>
|  9> * xyz 0 1
| 10> C         -4.149280373638    2.351277145039    0.045087188019
| 11> O         -2.427080295014    2.221241832009   -0.107444026787
| 12> H         -4.361328327406    3.386036759439   -0.167265220637
| 13> H         -4.354692676761    2.039393160415    1.055690726329
| 14> H         -4.484415402104    1.663170328036   -0.710795134564
| 15> H         -2.110312925076    2.830510775060    0.561726467640
| 16> **                         ****END OF INPUT****

CARTESIAN COORDINATES (ANGSTROEM)
---------------------------------
  C     -4.149280    2.351277    0.045087
  O     -2.427080    2.221242   -0.107444
  H     -4.361328    3.386037   -0.167265
  H     -4.354693    2.039393    1.055691
  H     -4.484415    1.663170   -0.710795
  H     -2.110313    2.830511    0.561726

 Total Charge           Charge          ....    0
 Multiplicity           Mult            ....    1
 Number of Electrons    NEL             ....   18
 Basis Dimension        Dim             ....   36

ORBITAL ENERGIES
----------------

  NO   OCC          E(Eh)            E(eV)
   0   2.0000     -19.228155      -523.2247
   1   2.0000     -10.334859      -281.2258
   2   2.0000      -1.055466       -28.7207
   3   2.0000      -0.806189       -21.9375
   4   2.0000      -0.556250       -15.1363
   5   2.0000      -0.537806       -14.6344
   6   2.0000      -0.497753       -13.5446
   7   2.0000      -0.416903       -11.3445
   8   2.0000      -0.353221        -9.6116
   9   0.0000       0.119545         3.2530
  10   0.0000       0.196940         5.3590
  11   0.0000       0.252317         6.8659
  12   0.0000       0.262214         7.1352
  13   0.0000       0.262802         7.1512

MULLIKEN ATOMIC CHARGES
-----------------------
   0 C :   -0.308670
   1 O :   -0.680430
   2 H :    0.189575
   3 H :    0.189609
   4 H :    0.207777
   5 H :    0.402139
Sum of atomic charges:    0.0000000

LOEWDIN ATOMIC CHARGES
----------------------
   0 C :   -0.213298
   1 O :   -0.518176
   2 H :    0.140416
   3 H :    0.140198
   4 H :    0.152551
   5 H :    0.298310

  Mayer bond orders larger than 0.1
B(  0-C ,  1-O ) :   0.9336 B(  0-C ,  2-H ) :   0.9389 B(  0-C ,  3-H ) :   0.9387
B(  0-C ,  4-H ) :   0.9443 B(  1-O ,  5-H ) :   0.7932

Dispersion correction           -0.000344335
FINAL SINGLE POINT ENERGY      -115.641055893939

DIPOLE MOMENT
-------------
                                X             Y             Z
Electronic contribution:      1.46610      -0.21883      -0.25014
Nuclear contribution   :     -2.15988       0.66400       0.74287
                        -----------------------------------------
Total Dipole Moment    :     -0.69378       0.44517       0.49273
                        -----------------------------------------
Magnitude (a.u.)       :      0.96036
Magnitude (Debye)      :      2.44104

                             ****ORCA TERMINATED NORMALLY****
TOTAL RUN TIME: 0 days 0 hours 0 minutes 4 seconds 454 msec
