                         Program Version 4.0.0.2 - RELEASE -
|  1> ! WB97X-D3 6-31G(d) VerySlowConv
|  2> ! KDIIS NOSOSCF
|  3> %base "Scan_15"
|  4>
|  5> %scf
|  6> maxiter 999
|  7> end
|  8>
|  9> * xyz 0 1
| 10> C         -4.193590162321    2.350929769086    0.044945340432
| 11> O         -2.373458326471    2.220719397565   -0.108311040068
| 12> H         -4.371985472301    3.389825476229   -0.169519735722
| 13> H         -4.365318512550    2.036727831217    1.059297777275
| 14> H         -4.500737838450    1.658209709653   -0.716168768527
| 15> H         -2.082019687907    2.835217816249    0.566756426609
| 16> **                         ****END OF INPUT****

CARTESIAN COORDINATES (ANGSTROEM)
---------------------------------
  C     -4.193590    2.350930    0.044945
  O     -2.373458    2.220719   -0.108311
  H     -4.371985    3.389825   -0.169520
  H     -4.365319    2.036728    1.059298
  H     -4.500738    1.658210   -0.716169
  H     -2.082020    2.835218    0.566756

 Total Charge           Charge          ....    0
 Multiplicity           Mult            ....    1
 Number of Electrons    NEL             ....   18
 Basis Dimension        Dim             ....   36

ORBITAL ENERGIES
----------------

  NO   OCC          E(Eh)            E(eV)
   0   2.0000     -19.225566      -523.1543
   1   2.0000     -10.341127      -281.3964
   2   2.0000      -1.043171       -28.3861
   3   2.0000      -0.810590       -22.0573
   4   2.0000      -0.551594       -15.0096
   5   2.0000      -0.541252       -14.7282
   6   2.0000      -0.495147       -13.4736
   7   2.0000      -0.406342       -11.0571
   8   2.0000      -0.349637        -9.5141
   9   0.0000       0.089794         2.4434
  10   0.0000       0.193531         5.2662
  11   0.0000       0.250702         6.8220
  12   0.0000       0.260017         7.0754
  13   0.0000       0.261721         7.1218

MULLIKEN ATOMIC CHARGES
-----------------------
   0 C :   -0.334012
   1 O :   -0.676781
   2 H :    0.198306
   3 H :    0.198331
   4 H :    0.214675
   5 H :    0.399481
Sum of atomic charges:   -0.0000000

LOEWDIN ATOMIC CHARGES
----------------------
   0 C :   -0.215205
   1 O :   -0.528400
   2 H :    0.146214
   3 H :    0.146055
   4 H :    0.156803
   5 H :    0.294533

  Mayer bond orders larger than 0.1
B(  0-C ,  1-O ) :   0.9344 B(  0-C ,  2-H ) :   0.9367 B(  0-C ,  3-H ) :   0.9366
B(  0-C ,  4-H ) :   0.9410 B(  1-O ,  5-H ) :   0.7953

Dispersion correction           -0.000400111
FINAL SINGLE POINT ENERGY      -115.624410799634

DIPOLE MOMENT
-------------
                                X             Y             Z
Electronic contribution:      1.41388      -0.21644      -0.24709
Nuclear contribution   :     -2.20502       0.66618       0.74552
                        -----------------------------------------
Total Dipole Moment    :     -0.79114       0.44974       0.49843
                        -----------------------------------------
Magnitude (a.u.)       :      1.03760
Magnitude (Debye)      :      2.63736

                             ****ORCA TERMINATED NORMALLY****
TOTAL RUN TIME: 0 days 0 hours 0 minutes 4 seconds 389 msec
