                         Program Version 4.0.0.2 - RELEASE -
|  1> ! WB97X-D3 6-31G(d) VerySlowConv
|  2> ! KDIIS NOSOSCF
|  3> %base "Scan_16"
|  4>
|  5> %scf
|  6> maxiter 999
|  7> end
|  8>
|  9> * xyz 0 1
| 10> C         -4.241049089895    2.352546690837    0.046981906713
| 11> O         -2.316554185956    2.218790526554   -0.110739274386
| 12> H         -4.386736316152    3.393531108400   -0.171565315575
| 13> H         -4.380035865071    2.034255493632    1.062860965192
| 14> H         -4.511747849351    1.653976612570   -0.720770982221
| 15> H         -2.050986693576    2.838529568006    0.570232700277
| 16> **                         ****END OF INPUT****

CARTESIAN COORDINATES (ANGSTROEM)
---------------------------------
  C     -4.241049    2.352547    0.046982
  O     -2.316554    2.218791   -0.110739
  H     -4.386736    3.393531   -0.171565
  H     -4.380036    2.034255    1.062861
  H     -4.511748    1.653977   -0.720771
  H     -2.050987    2.838530    0.570233

 Total Charge           Charge          ....    0
 Multiplicity           Mult            ....    1
 Number of Electrons    NEL             ....   18
 Basis Dimension        Dim             ....   36

ORBITAL ENERGIES
----------------

  NO   OCC          E(Eh)            E(eV)
   0   2.0000     -19.222626      -523.0743
   1   2.0000     -10.347407      -281.5673
   2   2.0000      -1.032707       -28.1014
   3   2.0000      -0.815201       -22.1827
   4   2.0000      -0.550774       -14.9873
   5   2.0000      -0.546067       -14.8592
   6   2.0000      -0.490983       -13.3603
   7   2.0000      -0.394212       -10.7271
   8   2.0000      -0.345679        -9.4064
   9   0.0000       0.061105         1.6628
  10   0.0000       0.191361         5.2072
  11   0.0000       0.249413         6.7869
  12   0.0000       0.258176         7.0253
  13   0.0000       0.260681         7.0935

MULLIKEN ATOMIC CHARGES
-----------------------
   0 C :   -0.358570
   1 O :   -0.672679
   2 H :    0.206534
   3 H :    0.206571
   4 H :    0.221836
   5 H :    0.396307
Sum of atomic charges:   -0.0000000

LOEWDIN ATOMIC CHARGES
----------------------
   0 C :   -0.218844
   1 O :   -0.536161
   2 H :    0.151561
   3 H :    0.151470
   4 H :    0.161155
   5 H :    0.290819

  Mayer bond orders larger than 0.1
B(  0-C ,  1-O ) :   0.9348 B(  0-C ,  2-H ) :   0.9343 B(  0-C ,  3-H ) :   0.9341
B(  0-C ,  4-H ) :   0.9375 B(  1-O ,  5-H ) :   0.7982

Dispersion correction           -0.000469368
FINAL SINGLE POINT ENERGY      -115.606464222978

DIPOLE MOMENT
-------------
                                X             Y             Z
Electronic contribution:      1.36310      -0.21258      -0.24243
Nuclear contribution   :     -2.25194       0.66775       0.74750
                        -----------------------------------------
Total Dipole Moment    :     -0.88884       0.45517       0.50507
                        -----------------------------------------
Magnitude (a.u.)       :      1.11907
Magnitude (Debye)      :      2.84445

                             ****ORCA TERMINATED NORMALLY****
TOTAL RUN TIME: 0 days 0 hours 0 minutes 4 seconds 737 msec
