                         Program Version 4.0.0.2 - RELEASE -
|  1> ! WB97X-D3 6-31G(d) VerySlowConv
|  2> ! KDIIS NOSOSCF
|  3> %base "Scan_17"
|  4>
|  5> %scf
|  6> maxiter 999
|  7> end
|  8>
|  9> * xyz 0 1
| 10> C         -4.293437277334    2.352666610573    0.047396280281
| 11> O         -2.257649516852    2.219953539308   -0.109771604776
| 12> H         -4.403594802004    3.395816608510   -0.174091911040
| 13> H         -4.396864389515    2.031429142021    1.064974289323
| 14> H         -4.527679940655    1.649371517422   -0.725756647677
| 15> H         -2.007884073641    2.842392582167    0.574249593888
| 16> **                         ****END OF INPUT****

CARTESIAN COORDINATES (ANGSTROEM)
---------------------------------
  C     -4.293437    2.352667    0.047396
  O     -2.257650    2.219954   -0.109772
  H     -4.403595    3.395817   -0.174092
  H     -4.396864    2.031429    1.064974
  H     -4.527680    1.649372   -0.725757
  H     -2.007884    2.842393    0.574250

 Total Charge           Charge          ....    0
 Multiplicity           Mult            ....    1
 Number of Electrons    NEL             ....   18
 Basis Dimension        Dim             ....   36

ORBITAL ENERGIES
----------------

  NO   OCC          E(Eh)            E(eV)
   0   2.0000     -19.218546      -522.9632
   1   2.0000     -10.353533      -281.7339
   2   2.0000      -1.023464       -27.8499
   3   2.0000      -0.819896       -22.3105
   4   2.0000      -0.552646       -15.0383
   5   2.0000      -0.551142       -14.9973
   6   2.0000      -0.486641       -13.2422
   7   2.0000      -0.380256       -10.3473
   8   2.0000      -0.341054        -9.2805
   9   0.0000       0.034933         0.9506
  10   0.0000       0.189962         5.1691
  11   0.0000       0.248651         6.7661
  12   0.0000       0.256217         6.9720
  13   0.0000       0.259475         7.0607

MULLIKEN ATOMIC CHARGES
-----------------------
   0 C :   -0.377596
   1 O :   -0.671750
   2 H :    0.214036
   3 H :    0.214093
   4 H :    0.228477
   5 H :    0.392740
Sum of atomic charges:    0.0000000

LOEWDIN ATOMIC CHARGES
----------------------
   0 C :   -0.221642
   1 O :   -0.543906
   2 H :    0.156550
   3 H :    0.156523
   4 H :    0.165290
   5 H :    0.287184

  Mayer bond orders larger than 0.1
B(  0-C ,  1-O ) :   0.9318 B(  0-C ,  2-H ) :   0.9322 B(  0-C ,  3-H ) :   0.9320
B(  0-C ,  4-H ) :   0.9341 B(  1-O ,  5-H ) :   0.8013

Dispersion correction           -0.000541680
FINAL SINGLE POINT ENERGY      -115.587767576394

DIPOLE MOMENT
-------------
                                X             Y             Z
Electronic contribution:      1.30663      -0.20613      -0.23485
Nuclear contribution   :     -2.29323       0.66436       0.74397
                        -----------------------------------------
Total Dipole Moment    :     -0.98660       0.45823       0.50912
                        -----------------------------------------
Magnitude (a.u.)       :      1.20107
Magnitude (Debye)      :      3.05287

                             ****ORCA TERMINATED NORMALLY****
TOTAL RUN TIME: 0 days 0 hours 0 minutes 4 seconds 795 msec
