                         Program Version 4.0.0.2 - RELEASE -
|  1> ! WB97X-D3 6-31G(d) VerySlowConv
|  2> ! KDIIS NOSOSCF
|  3> %base "Scan_18"
|  4>
|  5> %scf
|  6> maxiter 999
|  7> end
|  8>
|  9> * xyz 0 1
| 10> C         -4.347956953837    2.353411743743    0.048514556188
| 11> O         -2.196501929254    2.220774402275   -0.109205394815
| 12> H         -4.424113243555    3.397789134231   -0.176250089726
| 13> H         -4.417366059714    2.028981675246    1.066832515765
| 14> H         -4.541175978632    1.645086434001   -0.730401023320
| 15> H         -1.959995835009    2.845586610504    0.577509435909
| 16> **                         ****END OF INPUT****

CARTESIAN COORDINATES (ANGSTROEM)
---------------------------------
  C     -4.347957    2.353412    0.048515
  O     -2.196502    2.220774   -0.109205
  H     -4.424113    3.397789   -0.176250
  H     -4.417366    2.028982    1.066833
  H     -4.541176    1.645086   -0.730401
  H     -1.959996    2.845587    0.577509

 Total Charge           Charge          ....    0
 Multiplicity           Mult            ....    1
 Number of Electrons    NEL             ....   18
 Basis Dimension        Dim             ....   36

ORBITAL ENERGIES
----------------

  NO   OCC          E(Eh)            E(eV)
   0   2.0000     -19.214759      -522.8602
   1   2.0000     -10.359089      -281.8851
   2   2.0000      -1.015930       -27.6449
   3   2.0000      -0.824333       -22.4312
   4   2.0000      -0.556240       -15.1361
   5   2.0000      -0.555888       -15.1265
   6   2.0000      -0.482033       -13.1168
   7   2.0000      -0.366885        -9.9834
   8   2.0000      -0.336803        -9.1649
   9   0.0000       0.011722         0.3190
  10   0.0000       0.188671         5.1340
  11   0.0000       0.247946         6.7470
  12   0.0000       0.254291         6.9196
  13   0.0000       0.257931         7.0186

MULLIKEN ATOMIC CHARGES
-----------------------
   0 C :   -0.393843
   1 O :   -0.671466
   2 H :    0.220635
   3 H :    0.220709
   4 H :    0.234637
   5 H :    0.389327
Sum of atomic charges:    0.0000000

LOEWDIN ATOMIC CHARGES
----------------------
   0 C :   -0.224899
   1 O :   -0.550286
   2 H :    0.160982
   3 H :    0.161003
   4 H :    0.169166
   5 H :    0.284034

  Mayer bond orders larger than 0.1
B(  0-C ,  1-O ) :   0.9282 B(  0-C ,  2-H ) :   0.9303 B(  0-C ,  3-H ) :   0.9301
B(  0-C ,  4-H ) :   0.9310 B(  1-O ,  5-H ) :   0.8044

Dispersion correction           -0.000613712
FINAL SINGLE POINT ENERGY      -115.569211514936

DIPOLE MOMENT
-------------
                                X             Y             Z
Electronic contribution:      1.25709      -0.19954      -0.22718
Nuclear contribution   :     -2.33579       0.66049       0.73996
                        -----------------------------------------
Total Dipole Moment    :     -1.07870       0.46095       0.51278
                        -----------------------------------------
Magnitude (a.u.)       :      1.28024
Magnitude (Debye)      :      3.25412

                             ****ORCA TERMINATED NORMALLY****
TOTAL RUN TIME: 0 days 0 hours 0 minutes 4 seconds 632 msec
