                         Program Version 4.0.0.2 - RELEASE -
|  1> ! WB97X-D3 6-31G(d) VerySlowConv
|  2> ! KDIIS NOSOSCF
|  3> %base "Scan_19"
|  4>
|  5> %scf
|  6> maxiter 999
|  7> end
|  8>
|  9> * xyz 0 1
| 10> C         -4.404738230587    2.353679578373    0.049118577858
| 11> O         -2.135171968409    2.222987934428   -0.107104241579
| 12> H         -4.448660844276    3.398769027624   -0.178297052686
| 13> H         -4.441900589501    2.026718045507    1.067732408405
| 14> H         -4.554510704615    1.641161946364   -0.734649406726
| 15> H         -1.902127662612    2.848313467704    0.580199714729
| 16> **                         ****END OF INPUT****

CARTESIAN COORDINATES (ANGSTROEM)
---------------------------------
  C     -4.404738    2.353680    0.049119
  O     -2.135172    2.222988   -0.107104
  H     -4.448661    3.398769   -0.178297
  H     -4.441901    2.026718    1.067732
  H     -4.554511    1.641162   -0.734649
  H     -1.902128    2.848313    0.580200

 Total Charge           Charge          ....    0
 Multiplicity           Mult            ....    1
 Number of Electrons    NEL             ....   18
 Basis Dimension        Dim             ....   36

ORBITAL ENERGIES
----------------

  NO   OCC          E(Eh)            E(eV)
   0   2.0000     -19.210777      -522.7518
   1   2.0000     -10.364167      -282.0233
   2   2.0000      -1.009699       -27.4753
   3   2.0000      -0.828583       -22.5469
   4   2.0000      -0.560986       -15.2652
   5   2.0000      -0.559745       -15.2314
   6   2.0000      -0.477736       -12.9999
   7   2.0000      -0.354264        -9.6400
   8   2.0000      -0.332753        -9.0547
   9   0.0000      -0.008493        -0.2311
  10   0.0000       0.187636         5.1058
  11   0.0000       0.247482         6.7343
  12   0.0000       0.252272         6.8647
  13   0.0000       0.256193         6.9714

MULLIKEN ATOMIC CHARGES
-----------------------
   0 C :   -0.405964
   1 O :   -0.673436
   2 H :    0.226349
   3 H :    0.226414
   4 H :    0.240311
   5 H :    0.386326
Sum of atomic charges:   -0.0000000

LOEWDIN ATOMIC CHARGES
----------------------
   0 C :   -0.226984
   1 O :   -0.556942
   2 H :    0.164915
   3 H :    0.164960
   4 H :    0.172665
   5 H :    0.281386

  Mayer bond orders larger than 0.1
B(  0-C ,  1-O ) :   0.9231 B(  0-C ,  2-H ) :   0.9287 B(  0-C ,  3-H ) :   0.9285
B(  0-C ,  4-H ) :   0.9281 B(  1-O ,  5-H ) :   0.8070

Dispersion correction           -0.000680662
FINAL SINGLE POINT ENERGY      -115.551457034550

DIPOLE MOMENT
-------------
                                X             Y             Z
Electronic contribution:      1.20988      -0.19198      -0.21846
Nuclear contribution   :     -2.37380       0.65395       0.73296
                        -----------------------------------------
Total Dipole Moment    :     -1.16391       0.46197       0.51450
                        -----------------------------------------
Magnitude (a.u.)       :      1.35382
Magnitude (Debye)      :      3.44113

                             ****ORCA TERMINATED NORMALLY****
TOTAL RUN TIME: 0 days 0 hours 0 minutes 5 seconds 549 msec
