                         Program Version 4.0.0.2 - RELEASE -
|  1> ! WB97X-D3 6-31G(d) VerySlowConv
|  2> ! KDIIS NOSOSCF
|  3> %base "Scan_2"
|  4>
|  5> %scf
|  6> maxiter 999
|  7> end
|  8>
|  9> * xyz 0 1
| 10> C         -3.849460864364    2.344257336447    0.035730645081
| 11> O         -2.761263979851    2.249535151375   -0.074475999188
| 12> H         -4.342414334578    3.364927880450   -0.154469500368
| 13> H         -4.335955990071    2.054258859219    1.035816119188
| 14> H         -4.400622613807    1.688550118417   -0.683303115608
| 15> H         -2.197392217329    2.790100654092    0.517701850895
| 16> **                         ****END OF INPUT****

CARTESIAN COORDINATES (ANGSTROEM)
---------------------------------
  C     -3.849461    2.344257    0.035731
  O     -2.761264    2.249535   -0.074476
  H     -4.342414    3.364928   -0.154470
  H     -4.335956    2.054259    1.035816
  H     -4.400623    1.688550   -0.683303
  H     -2.197392    2.790101    0.517702

 Total Charge           Charge          ....    0
 Multiplicity           Mult            ....    1
 Number of Electrons    NEL             ....   18
 Basis Dimension        Dim             ....   36

ORBITAL ENERGIES
----------------

  NO   OCC          E(Eh)            E(eV)
   0   2.0000     -19.260971      -524.1177
   1   2.0000     -10.309909      -280.5469
   2   2.0000      -1.275750       -34.7149
   3   2.0000      -0.799951       -21.7678
   4   2.0000      -0.665400       -18.1065
   5   2.0000      -0.593248       -16.1431
   6   2.0000      -0.589329       -16.0365
   7   2.0000      -0.377391       -10.2693
   8   2.0000      -0.332462        -9.0467
   9   0.0000       0.156360         4.2548
  10   0.0000       0.225816         6.1448
  11   0.0000       0.277120         7.5408
  12   0.0000       0.289706         7.8833
  13   0.0000       0.371472        10.1083

MULLIKEN ATOMIC CHARGES
-----------------------
   0 C :   -0.272457
   1 O :   -0.403401
   2 H :    0.058605
   3 H :    0.058763
   4 H :    0.129360
   5 H :    0.429130
Sum of atomic charges:   -0.0000000

LOEWDIN ATOMIC CHARGES
----------------------
   0 C :   -0.316539
   1 O :   -0.206617
   2 H :    0.041880
   3 H :    0.041769
   4 H :    0.100161
   5 H :    0.339346

  Mayer bond orders larger than 0.1
B(  0-C ,  1-O ) :   1.1809 B(  0-C ,  2-H ) :   0.9266 B(  0-C ,  3-H ) :   0.9265
B(  0-C ,  4-H ) :   0.9259 B(  1-O ,  5-H ) :   0.7583

Dispersion correction           -0.000186667
FINAL SINGLE POINT ENERGY      -115.558350341365

DIPOLE MOMENT
-------------
                                X             Y             Z
Electronic contribution:      2.34608      -0.27159      -0.31261
Nuclear contribution   :     -1.93143       0.60367       0.67520
                        -----------------------------------------
Total Dipole Moment    :      0.41466       0.33209       0.36260
                        -----------------------------------------
Magnitude (a.u.)       :      0.64319
Magnitude (Debye)      :      1.63487

                             ****ORCA TERMINATED NORMALLY****
TOTAL RUN TIME: 0 days 0 hours 0 minutes 4 seconds 586 msec
