                         Program Version 4.0.0.2 - RELEASE -
|  1> ! WB97X-D3 6-31G(d) VerySlowConv
|  2> ! KDIIS NOSOSCF
|  3> %base "Scan_20"
|  4>
|  5> %scf
|  6> maxiter 999
|  7> end
|  8>
|  9> * xyz 0 1
| 10> C         -4.462225019337    2.353312064787    0.049025791862
| 11> O         -2.074526612010    2.226851776352   -0.103178758704
| 12> H         -4.476743923683    3.398371325296   -0.180321205760
| 13> H         -4.469975097092    2.024589847817    1.067279857760
| 14> H         -4.569367402483    1.637536410008   -0.738560988021
| 15> H         -1.834271945395    2.850968575740    0.582755302863
| 16> **                         ****END OF INPUT****

CARTESIAN COORDINATES (ANGSTROEM)
---------------------------------
  C     -4.462225    2.353312    0.049026
  O     -2.074527    2.226852   -0.103179
  H     -4.476744    3.398371   -0.180321
  H     -4.469975    2.024590    1.067280
  H     -4.569367    1.637536   -0.738561
  H     -1.834272    2.850969    0.582755

 Total Charge           Charge          ....    0
 Multiplicity           Mult            ....    1
 Number of Electrons    NEL             ....   18
 Basis Dimension        Dim             ....   36

ORBITAL ENERGIES
----------------

  NO   OCC          E(Eh)            E(eV)
   0   2.0000     -19.206728      -522.6416
   1   2.0000     -10.368595      -282.1438
   2   2.0000      -1.004480       -27.3333
   3   2.0000      -0.832527       -22.6542
   4   2.0000      -0.565236       -15.3808
   5   2.0000      -0.563496       -15.3335
   6   2.0000      -0.473813       -12.8931
   7   2.0000      -0.342850        -9.3294
   8   2.0000      -0.328974        -8.9518
   9   0.0000      -0.025782        -0.7016
  10   0.0000       0.186843         5.0843
  11   0.0000       0.247174         6.7259
  12   0.0000       0.250347         6.8123
  13   0.0000       0.254253         6.9186

MULLIKEN ATOMIC CHARGES
-----------------------
   0 C :   -0.414199
   1 O :   -0.677224
   2 H :    0.231248
   3 H :    0.231300
   4 H :    0.244969
   5 H :    0.383906
Sum of atomic charges:    0.0000000

LOEWDIN ATOMIC CHARGES
----------------------
   0 C :   -0.227562
   1 O :   -0.564040
   2 H :    0.168312
   3 H :    0.168368
   4 H :    0.175601
   5 H :    0.279321

  Mayer bond orders larger than 0.1
B(  0-C ,  1-O ) :   0.9171 B(  0-C ,  2-H ) :   0.9273 B(  0-C ,  3-H ) :   0.9271
B(  0-C ,  4-H ) :   0.9256 B(  1-O ,  5-H ) :   0.8092

Dispersion correction           -0.000735454
FINAL SINGLE POINT ENERGY      -115.534931937995

DIPOLE MOMENT
-------------
                                X             Y             Z
Electronic contribution:      1.16781      -0.18369      -0.20905
Nuclear contribution   :     -2.40839       0.64439       0.72263
                        -----------------------------------------
Total Dipole Moment    :     -1.24057       0.46070       0.51357
                        -----------------------------------------
Magnitude (a.u.)       :      1.41951
Magnitude (Debye)      :      3.60812

                             ****ORCA TERMINATED NORMALLY****
TOTAL RUN TIME: 0 days 0 hours 0 minutes 6 seconds 428 msec
