                         Program Version 4.0.0.2 - RELEASE -
|  1> ! WB97X-D3 6-31G(d) VerySlowConv
|  2> ! KDIIS NOSOSCF
|  3> %base "Scan_21"
|  4>
|  5> %scf
|  6> maxiter 999
|  7> end
|  8>
|  9> * xyz 0 1
| 10> C         -4.518206966510    2.351946601178    0.047825960903
| 11> O         -2.014402593912    2.233223169906   -0.096489250487
| 12> H         -4.511549848150    3.396600339568   -0.182525408919
| 13> H         -4.504778799592    2.022377994372    1.065476059578
| 14> H         -4.587412491087    1.634109525648   -0.742236535873
| 15> H         -1.750759300749    2.853372369328    0.584949174799
| 16> **                         ****END OF INPUT****

CARTESIAN COORDINATES (ANGSTROEM)
---------------------------------
  C     -4.518207    2.351947    0.047826
  O     -2.014403    2.233223   -0.096489
  H     -4.511550    3.396600   -0.182525
  H     -4.504779    2.022378    1.065476
  H     -4.587412    1.634110   -0.742237
  H     -1.750759    2.853372    0.584949

 Total Charge           Charge          ....    0
 Multiplicity           Mult            ....    1
 Number of Electrons    NEL             ....   18
 Basis Dimension        Dim             ....   36

ORBITAL ENERGIES
----------------

  NO   OCC          E(Eh)            E(eV)
   0   2.0000     -19.203418      -522.5516
   1   2.0000     -10.372056      -282.2380
   2   2.0000      -1.000346       -27.2208
   3   2.0000      -0.835910       -22.7463
   4   2.0000      -0.568584       -15.4719
   5   2.0000      -0.566611       -15.4183
   6   2.0000      -0.470602       -12.8057
   7   2.0000      -0.332952        -9.0601
   8   2.0000      -0.325894        -8.8680
   9   0.0000      -0.040381        -1.0988
  10   0.0000       0.186425         5.0729
  11   0.0000       0.246697         6.7130
  12   0.0000       0.248702         6.7675
  13   0.0000       0.252406         6.8683

MULLIKEN ATOMIC CHARGES
-----------------------
   0 C :   -0.420075
   1 O :   -0.680780
   2 H :    0.235137
   3 H :    0.235165
   4 H :    0.248194
   5 H :    0.382358
Sum of atomic charges:    0.0000000

LOEWDIN ATOMIC CHARGES
----------------------
   0 C :   -0.227424
   1 O :   -0.570196
   2 H :    0.170937
   3 H :    0.170992
   4 H :    0.177669
   5 H :    0.278022

  Mayer bond orders larger than 0.1
B(  0-C ,  1-O ) :   0.9120 B(  0-C ,  2-H ) :   0.9260 B(  0-C ,  3-H ) :   0.9259
B(  0-C ,  4-H ) :   0.9238 B(  1-O ,  5-H ) :   0.8106

Dispersion correction           -0.000773058
FINAL SINGLE POINT ENERGY      -115.519883643082

DIPOLE MOMENT
-------------
                                X             Y             Z
Electronic contribution:      1.14296      -0.17470      -0.19903
Nuclear contribution   :     -2.44494       0.63032       0.70734
                        -----------------------------------------
Total Dipole Moment    :     -1.30198       0.45562       0.50830
                        -----------------------------------------
Magnitude (a.u.)       :      1.47007
Magnitude (Debye)      :      3.73662

                             ****ORCA TERMINATED NORMALLY****
TOTAL RUN TIME: 0 days 0 hours 0 minutes 6 seconds 725 msec
