                         Program Version 4.0.0.2 - RELEASE -
|  1> ! WB97X-D3 6-31G(d) VerySlowConv
|  2> ! KDIIS NOSOSCF
|  3> %base "Scan_22"
|  4>
|  5> %scf
|  6> maxiter 999
|  7> end
|  8>
|  9> * xyz 0 1
| 10> C         -4.574675651589    2.350099647536    0.046098585331
| 11> O         -1.956388274974    2.241912488860   -0.087235951853
| 12> H         -4.554499865777    3.394685671158   -0.184324478424
| 13> H         -4.547729146623    2.020539209679    1.063608101610
| 14> H         -4.601334050566    1.631112792655   -0.745460794177
| 15> H         -1.652483010470    2.853280190112    0.584314537513
| 16> **                         ****END OF INPUT****

CARTESIAN COORDINATES (ANGSTROEM)
---------------------------------
  C     -4.574676    2.350100    0.046099
  O     -1.956388    2.241912   -0.087236
  H     -4.554500    3.394686   -0.184324
  H     -4.547729    2.020539    1.063608
  H     -4.601334    1.631113   -0.745461
  H     -1.652483    2.853280    0.584315

 Total Charge           Charge          ....    0
 Multiplicity           Mult            ....    1
 Number of Electrons    NEL             ....   18
 Basis Dimension        Dim             ....   36

ORBITAL ENERGIES
----------------

  NO   OCC          E(Eh)            E(eV)
   0   2.0000     -19.199917      -522.4563
   1   2.0000     -10.374927      -282.3161
   2   2.0000      -0.996997       -27.1297
   3   2.0000      -0.838838       -22.8259
   4   2.0000      -0.571290       -15.5456
   5   2.0000      -0.569326       -15.4922
   6   2.0000      -0.467739       -12.7278
   7   2.0000      -0.323953        -8.8152
   8   2.0000      -0.323006        -8.7894
   9   0.0000      -0.052906        -1.4396
  10   0.0000       0.186218         5.0672
  11   0.0000       0.246635         6.7113
  12   0.0000       0.247080         6.7234
  13   0.0000       0.250876         6.8267

MULLIKEN ATOMIC CHARGES
-----------------------
   0 C :   -0.424024
   1 O :   -0.685584
   2 H :    0.238291
   3 H :    0.238286
   4 H :    0.251277
   5 H :    0.381753
Sum of atomic charges:    0.0000000

LOEWDIN ATOMIC CHARGES
----------------------
   0 C :   -0.226195
   1 O :   -0.576691
   2 H :    0.173059
   3 H :    0.173107
   4 H :    0.179467
   5 H :    0.277253

  Mayer bond orders larger than 0.1
B(  0-C ,  1-O ) :   0.9072 B(  0-C ,  2-H ) :   0.9249 B(  0-C ,  3-H ) :   0.9247
B(  0-C ,  4-H ) :   0.9221 B(  1-O ,  5-H ) :   0.8111

Dispersion correction           -0.000789051
FINAL SINGLE POINT ENERGY      -115.505974483432

DIPOLE MOMENT
-------------
                                X             Y             Z
Electronic contribution:      1.12377      -0.16473      -0.18793
Nuclear contribution   :     -2.47473       0.61111       0.68634
                        -----------------------------------------
Total Dipole Moment    :     -1.35097       0.44638       0.49841
                        -----------------------------------------
Magnitude (a.u.)       :      1.50757
Magnitude (Debye)      :      3.83194

                             ****ORCA TERMINATED NORMALLY****
TOTAL RUN TIME: 0 days 0 hours 0 minutes 5 seconds 428 msec
