                         Program Version 4.0.0.2 - RELEASE -
|  1> ! WB97X-D3 6-31G(d) VerySlowConv
|  2> ! KDIIS NOSOSCF
|  3> %base "Scan_23"
|  4>
|  5> %scf
|  6> maxiter 999
|  7> end
|  8>
|  9> * xyz 0 1
| 10> C         -4.629007306431    2.345905446946    0.041774976270
| 11> O         -1.899010395009    2.257734282652   -0.070125336924
| 12> H         -4.602429030198    3.390605971509   -0.187831418679
| 13> H         -4.595661838113    2.017181483967    1.059445514878
| 14> H         -4.630645062745    1.626690635938   -0.750171154401
| 15> H         -1.530356367503    2.853512178987    0.583907418856
| 16> **                         ****END OF INPUT****

CARTESIAN COORDINATES (ANGSTROEM)
---------------------------------
  C     -4.629007    2.345905    0.041775
  O     -1.899010    2.257734   -0.070125
  H     -4.602429    3.390606   -0.187831
  H     -4.595662    2.017181    1.059446
  H     -4.630645    1.626691   -0.750171
  H     -1.530356    2.853512    0.583907

 Total Charge           Charge          ....    0
 Multiplicity           Mult            ....    1
 Number of Electrons    NEL             ....   18
 Basis Dimension        Dim             ....   36

ORBITAL ENERGIES
----------------

  NO   OCC          E(Eh)            E(eV)
   0   2.0000     -19.196348      -522.3592
   1   2.0000     -10.377174      -282.3773
   2   2.0000      -0.993417       -27.0322
   3   2.0000      -0.841316       -22.8934
   4   2.0000      -0.573341       -15.6014
   5   2.0000      -0.571716       -15.5572
   6   2.0000      -0.464781       -12.6473
   7   2.0000      -0.320062        -8.7093
   8   2.0000      -0.315419        -8.5830
   9   0.0000      -0.063436        -1.7262
  10   0.0000       0.186094         5.0639
  11   0.0000       0.245773         6.6878
  12   0.0000       0.246592         6.7101
  13   0.0000       0.249307         6.7840

MULLIKEN ATOMIC CHARGES
-----------------------
   0 C :   -0.425005
   1 O :   -0.690514
   2 H :    0.240893
   3 H :    0.240877
   4 H :    0.252460
   5 H :    0.381289
Sum of atomic charges:    0.0000000

LOEWDIN ATOMIC CHARGES
----------------------
   0 C :   -0.223155
   1 O :   -0.583290
   2 H :    0.174651
   3 H :    0.174697
   4 H :    0.180203
   5 H :    0.276895

  Mayer bond orders larger than 0.1
B(  0-C ,  1-O ) :   0.9032 B(  0-C ,  2-H ) :   0.9239 B(  0-C ,  3-H ) :   0.9238
B(  0-C ,  4-H ) :   0.9212 B(  1-O ,  5-H ) :   0.8114

Dispersion correction           -0.000780343
FINAL SINGLE POINT ENERGY      -115.493171928960

DIPOLE MOMENT
-------------
                                X             Y             Z
Electronic contribution:      1.11845      -0.15071      -0.17244
Nuclear contribution   :     -2.50759       0.57797       0.65003
                        -----------------------------------------
Total Dipole Moment    :     -1.38914       0.42725       0.47759
                        -----------------------------------------
Magnitude (a.u.)       :      1.52982
Magnitude (Debye)      :      3.88848

                             ****ORCA TERMINATED NORMALLY****
TOTAL RUN TIME: 0 days 0 hours 0 minutes 5 seconds 652 msec
