                         Program Version 4.0.0.2 - RELEASE -
|  1> ! WB97X-D3 6-31G(d) VerySlowConv
|  2> ! KDIIS NOSOSCF
|  3> %base "Scan_24"
|  4>
|  5> %scf
|  6> maxiter 999
|  7> end
|  8>
|  9> * xyz 0 1
| 10> C         -4.692393604480    2.343109806607    0.039040503436
| 11> O         -1.852288189363    2.284209221298   -0.041226349496
| 12> H         -4.690580414300    3.388483622449   -0.189284248282
| 13> H         -4.683815123979    2.015463162461    1.057625785650
| 14> H         -4.616398949257    1.625867570242   -0.751154743162
| 15> H         -1.351633718621    2.834496616944    0.561999051854
| 16> **                         ****END OF INPUT****

CARTESIAN COORDINATES (ANGSTROEM)
---------------------------------
  C     -4.692394    2.343110    0.039041
  O     -1.852288    2.284209   -0.041226
  H     -4.690580    3.388484   -0.189284
  H     -4.683815    2.015463    1.057626
  H     -4.616399    1.625868   -0.751155
  H     -1.351634    2.834497    0.561999

 Total Charge           Charge          ....    0
 Multiplicity           Mult            ....    1
 Number of Electrons    NEL             ....   18
 Basis Dimension        Dim             ....   36

ORBITAL ENERGIES
----------------

  NO   OCC          E(Eh)            E(eV)
   0   2.0000     -19.190869      -522.2101
   1   2.0000     -10.378738      -282.4198
   2   2.0000      -0.989060       -26.9137
   3   2.0000      -0.843346       -22.9486
   4   2.0000      -0.575256       -15.6535
   5   2.0000      -0.573400       -15.6030
   6   2.0000      -0.461069       -12.5463
   7   2.0000      -0.315979        -8.5982
   8   2.0000      -0.305552        -8.3145
   9   0.0000      -0.073115        -1.9896
  10   0.0000       0.186350         5.0708
  11   0.0000       0.244635         6.6568
  12   0.0000       0.246764         6.7148
  13   0.0000       0.250009         6.8031

MULLIKEN ATOMIC CHARGES
-----------------------
   0 C :   -0.422138
   1 O :   -0.700274
   2 H :    0.242560
   3 H :    0.242529
   4 H :    0.255658
   5 H :    0.381666
Sum of atomic charges:   -0.0000000

LOEWDIN ATOMIC CHARGES
----------------------
   0 C :   -0.216333
   1 O :   -0.593791
   2 H :    0.175642
   3 H :    0.175685
   4 H :    0.181965
   5 H :    0.276832

  Mayer bond orders larger than 0.1
B(  0-C ,  1-O ) :   0.8974 B(  0-C ,  2-H ) :   0.9232 B(  0-C ,  3-H ) :   0.9231
B(  0-C ,  4-H ) :   0.9196 B(  1-O ,  5-H ) :   0.8106

Dispersion correction           -0.000745116
FINAL SINGLE POINT ENERGY      -115.479592813504

DIPOLE MOMENT
-------------
                                X             Y             Z
Electronic contribution:      1.09298      -0.13054      -0.14988
Nuclear contribution   :     -2.49161       0.51310       0.57851
                        -----------------------------------------
Total Dipole Moment    :     -1.39863       0.38256       0.42863
                        -----------------------------------------
Magnitude (a.u.)       :      1.51204
Magnitude (Debye)      :      3.84329

                             ****ORCA TERMINATED NORMALLY****
TOTAL RUN TIME: 0 days 0 hours 0 minutes 20 seconds 447 msec
