                         Program Version 4.0.0.2 - RELEASE -
|  1> ! WB97X-D3 6-31G(d) VerySlowConv
|  2> ! KDIIS NOSOSCF
|  3> %base "Scan_25"
|  4>
|  5> %scf
|  6> maxiter 999
|  7> end
|  8>
|  9> * xyz 0 1
| 10> C         -4.752198433060    2.337854009505    0.033577632905
| 11> O         -1.804268711750    2.326306031537    0.004867424567
| 12> H         -4.768852866789    3.382884065028   -0.194634150665
| 13> H         -4.762089478494    2.010253100297    1.051922183499
| 14> H         -4.630077587103    1.623508231460   -0.753678476253
| 15> H         -1.169622922804    2.810824562174    0.534945385946
| 16> **                         ****END OF INPUT****

CARTESIAN COORDINATES (ANGSTROEM)
---------------------------------
  C     -4.752198    2.337854    0.033578
  O     -1.804269    2.326306    0.004867
  H     -4.768853    3.382884   -0.194634
  H     -4.762089    2.010253    1.051922
  H     -4.630078    1.623508   -0.753678
  H     -1.169623    2.810825    0.534945

 Total Charge           Charge          ....    0
 Multiplicity           Mult            ....    1
 Number of Electrons    NEL             ....   18
 Basis Dimension        Dim             ....   36

ORBITAL ENERGIES
----------------

  NO   OCC          E(Eh)            E(eV)
   0   2.0000     -19.185111      -522.0534
   1   2.0000     -10.379678      -282.4454
   2   2.0000      -0.984332       -26.7850
   3   2.0000      -0.845213       -22.9994
   4   2.0000      -0.576991       -15.7007
   5   2.0000      -0.575135       -15.6502
   6   2.0000      -0.457166       -12.4401
   7   2.0000      -0.311790        -8.4842
   8   2.0000      -0.295674        -8.0457
   9   0.0000      -0.082066        -2.2331
  10   0.0000       0.185965         5.0604
  11   0.0000       0.243757         6.6330
  12   0.0000       0.246055         6.6955
  13   0.0000       0.251357         6.8398

MULLIKEN ATOMIC CHARGES
-----------------------
   0 C :   -0.416843
   1 O :   -0.709674
   2 H :    0.244229
   3 H :    0.244210
   4 H :    0.256262
   5 H :    0.381816
Sum of atomic charges:   -0.0000000

LOEWDIN ATOMIC CHARGES
----------------------
   0 C :   -0.208188
   1 O :   -0.604102
   2 H :    0.176486
   3 H :    0.176522
   4 H :    0.182368
   5 H :    0.276913

  Mayer bond orders larger than 0.1
B(  0-C ,  1-O ) :   0.8919 B(  0-C ,  2-H ) :   0.9226 B(  0-C ,  3-H ) :   0.9224
B(  0-C ,  4-H ) :   0.9192 B(  1-O ,  5-H ) :   0.8101

Dispersion correction           -0.000700351
FINAL SINGLE POINT ENERGY      -115.465909249522

DIPOLE MOMENT
-------------
                                X             Y             Z
Electronic contribution:      1.07989      -0.09813      -0.11407
Nuclear contribution   :     -2.48711       0.41175       0.46689
                        -----------------------------------------
Total Dipole Moment    :     -1.40722       0.31363       0.35282
                        -----------------------------------------
Magnitude (a.u.)       :      1.48429
Magnitude (Debye)      :      3.77277

                             ****ORCA TERMINATED NORMALLY****
TOTAL RUN TIME: 0 days 0 hours 0 minutes 21 seconds 182 msec
