                         Program Version 4.0.0.2 - RELEASE -
|  1> ! WB97X-D3 6-31G(d) VerySlowConv
|  2> ! KDIIS NOSOSCF
|  3> %base "Scan_26"
|  4>
|  5> %scf
|  6> maxiter 999
|  7> end
|  8>
|  9> * xyz 0 1
| 10> C         -4.776154952854    2.436204293040    0.141975064265
| 11> O         -1.751141691727    2.161062917972   -0.177311463432
| 12> H         -5.309439464026    3.183883540885   -0.410994975632
| 13> H         -5.302278017118    1.811165869865    0.835780041403
| 14> H         -3.711047349899    2.309182214468   -0.003770337163
| 15> H         -1.037048524376    2.590131163770    0.291321670558
| 16> **                         ****END OF INPUT****

CARTESIAN COORDINATES (ANGSTROEM)
---------------------------------
  C     -4.776155    2.436204    0.141975
  O     -1.751142    2.161063   -0.177311
  H     -5.309439    3.183884   -0.410995
  H     -5.302278    1.811166    0.835780
  H     -3.711047    2.309182   -0.003770
  H     -1.037049    2.590131    0.291322

 Total Charge           Charge          ....    0
 Multiplicity           Mult            ....    1
 Number of Electrons    NEL             ....   18
 Basis Dimension        Dim             ....   36

ORBITAL ENERGIES
----------------

  NO   OCC          E(Eh)            E(eV)
   0   2.0000     -19.167901      -521.5851
   1   2.0000     -10.381707      -282.5006
   2   2.0000      -0.976287       -26.5661
   3   2.0000      -0.850469       -23.1424
   4   2.0000      -0.586764       -15.9667
   5   2.0000      -0.574303       -15.6276
   6   2.0000      -0.448545       -12.2055
   7   2.0000      -0.304345        -8.2816
   8   2.0000      -0.281013        -7.6467
   9   0.0000      -0.108139        -2.9426
  10   0.0000       0.185107         5.0370
  11   0.0000       0.233872         6.3640
  12   0.0000       0.246114         6.6971
  13   0.0000       0.343305         9.3418

MULLIKEN ATOMIC CHARGES
-----------------------
   0 C :   -0.426587
   1 O :   -0.733984
   2 H :    0.233650
   3 H :    0.233665
   4 H :    0.318324
   5 H :    0.374933
Sum of atomic charges:    0.0000000

LOEWDIN ATOMIC CHARGES
----------------------
   0 C :   -0.168803
   1 O :   -0.650847
   2 H :    0.169991
   3 H :    0.169742
   4 H :    0.205206
   5 H :    0.274711

  Mayer bond orders larger than 0.1
B(  0-C ,  1-O ) :   0.7708 B(  0-C ,  2-H ) :   0.9220 B(  0-C ,  3-H ) :   0.9219
B(  0-C ,  4-H ) :   0.7967 B(  1-O ,  4-H ) :   0.1425 B(  1-O ,  5-H ) :   0.8087

Dispersion correction           -0.000484233
FINAL SINGLE POINT ENERGY      -115.442587571088

DIPOLE MOMENT
-------------
                                X             Y             Z
Electronic contribution:      0.98347      -0.16139      -0.18363
Nuclear contribution   :     -2.57635       0.63609       0.71430
                        -----------------------------------------
Total Dipole Moment    :     -1.59288       0.47470       0.53067
                        -----------------------------------------
Magnitude (a.u.)       :      1.74477
Magnitude (Debye)      :      4.43485

                             ****ORCA TERMINATED NORMALLY****
TOTAL RUN TIME: 0 days 0 hours 0 minutes 5 seconds 965 msec
