                         Program Version 4.0.0.2 - RELEASE -
|  1> ! WB97X-D3 6-31G(d) VerySlowConv
|  2> ! KDIIS NOSOSCF
|  3> %base "Scan_27"
|  4>
|  5> %scf
|  6> maxiter 999
|  7> end
|  8>
|  9> * xyz 0 1
| 10> C         -4.856528039394    2.435239420834    0.141378455368
| 11> O         -1.703741174957    2.331445979758    0.010091261321
| 12> H         -5.397523842397    3.139410395256   -0.457840845853
| 13> H         -5.390791584970    1.768294416761    0.787400448062
| 14> H         -3.781398591484    2.393318275116    0.089410735789
| 15> H         -0.757126766798    2.423921512274    0.106559945314
| 16> **                         ****END OF INPUT****

CARTESIAN COORDINATES (ANGSTROEM)
---------------------------------
  C     -4.856528    2.435239    0.141378
  O     -1.703741    2.331446    0.010091
  H     -5.397524    3.139410   -0.457841
  H     -5.390792    1.768294    0.787400
  H     -3.781399    2.393318    0.089411
  H     -0.757127    2.423922    0.106560

 Total Charge           Charge          ....    0
 Multiplicity           Mult            ....    1
 Number of Electrons    NEL             ....   18
 Basis Dimension        Dim             ....   36

ORBITAL ENERGIES
----------------

  NO   OCC          E(Eh)            E(eV)
   0   2.0000     -18.962852      -516.0054
   1   2.0000     -10.536691      -286.7179
   2   2.0000      -0.969650       -26.3855
   3   2.0000      -0.796302       -21.6685
   4   2.0000      -0.706090       -19.2137
   5   2.0000      -0.677669       -18.4403
   6   2.0000      -0.297941        -8.1074
   7   2.0000      -0.134004        -3.6464
   8   2.0000      -0.133691        -3.6379
   9   0.0000      -0.190327        -5.1791
  10   0.0000       0.108467         2.9515
  11   0.0000       0.152412         4.1473
  12   0.0000       0.261473         7.1150
  13   0.0000       0.381119        10.3708

MULLIKEN ATOMIC CHARGES
-----------------------
   0 C :   -0.127128
   1 O :   -1.132137
   2 H :    0.295878
   3 H :    0.295830
   4 H :    0.373775
   5 H :    0.293783
Sum of atomic charges:   -0.0000000

LOEWDIN ATOMIC CHARGES
----------------------
   0 C :    0.219656
   1 O :   -1.120582
   2 H :    0.208074
   3 H :    0.207940
   4 H :    0.252589
   5 H :    0.232324

  Mayer bond orders larger than 0.1
B(  0-C ,  2-H ) :   0.8832 B(  0-C ,  3-H ) :   0.8832 B(  0-C ,  4-H ) :   0.6386
B(  1-O ,  4-H ) :   0.2844 B(  1-O ,  5-H ) :   0.8342

Dispersion correction           -0.000454228
FINAL SINGLE POINT ENERGY      -115.365329565525

DIPOLE MOMENT
-------------
                                X             Y             Z
Electronic contribution:     -2.09238       0.03421       0.04868
Nuclear contribution   :     -2.52428       0.18059       0.21226
                        -----------------------------------------
Total Dipole Moment    :     -4.61666       0.21480       0.26094
                        -----------------------------------------
Magnitude (a.u.)       :      4.62901
Magnitude (Debye)      :     11.76602

                             ****ORCA TERMINATED NORMALLY****
TOTAL RUN TIME: 0 days 0 hours 0 minutes 7 seconds 595 msec
