                         Program Version 4.0.0.2 - RELEASE -
|  1> ! WB97X-D3 6-31G(d) VerySlowConv
|  2> ! KDIIS NOSOSCF
|  3> %base "Scan_28"
|  4>
|  5> %scf
|  6> maxiter 999
|  7> end
|  8>
|  9> * xyz 0 1
| 10> C         -4.890925344638    2.433742721077    0.139919883484
| 11> O         -1.636403349140    2.330357137722    0.008516660821
| 12> H         -5.430531564327    3.141460390407   -0.456114910538
| 13> H         -5.423805205732    1.769639486780    0.789767687443
| 14> H         -3.816130772341    2.392969898630    0.089224655501
| 15> H         -0.689313763822    2.423460365383    0.105686023289
| 16> **                         ****END OF INPUT****

CARTESIAN COORDINATES (ANGSTROEM)
---------------------------------
  C     -4.890925    2.433743    0.139920
  O     -1.636403    2.330357    0.008517
  H     -5.430532    3.141460   -0.456115
  H     -5.423805    1.769639    0.789768
  H     -3.816131    2.392970    0.089225
  H     -0.689314    2.423460    0.105686

 Total Charge           Charge          ....    0
 Multiplicity           Mult            ....    1
 Number of Electrons    NEL             ....   18
 Basis Dimension        Dim             ....   36

ORBITAL ENERGIES
----------------

  NO   OCC          E(Eh)            E(eV)
   0   2.0000     -18.955491      -515.8051
   1   2.0000     -10.545183      -286.9490
   2   2.0000      -0.976873       -26.5821
   3   2.0000      -0.788595       -21.4588
   4   2.0000      -0.713014       -19.4021
   5   2.0000      -0.685903       -18.6644
   6   2.0000      -0.289506        -7.8779
   7   2.0000      -0.126462        -3.4412
   8   2.0000      -0.126118        -3.4318
   9   0.0000      -0.197156        -5.3649
  10   0.0000       0.103317         2.8114
  11   0.0000       0.147236         4.0065
  12   0.0000       0.249194         6.7809
  13   0.0000       0.382078        10.3969

MULLIKEN ATOMIC CHARGES
-----------------------
   0 C :   -0.121610
   1 O :   -1.143261
   2 H :    0.300201
   3 H :    0.300146
   4 H :    0.374969
   5 H :    0.289556
Sum of atomic charges:   -0.0000000

LOEWDIN ATOMIC CHARGES
----------------------
   0 C :    0.224735
   1 O :   -1.128213
   2 H :    0.210622
   3 H :    0.210471
   4 H :    0.253498
   5 H :    0.228887

  Mayer bond orders larger than 0.1
B(  0-C ,  2-H ) :   0.8817 B(  0-C ,  3-H ) :   0.8817 B(  0-C ,  4-H ) :   0.6579
B(  1-O ,  4-H ) :   0.2601 B(  1-O ,  5-H ) :   0.8387

Dispersion correction           -0.000446857
FINAL SINGLE POINT ENERGY      -115.357448511343

DIPOLE MOMENT
-------------
                                X             Y             Z
Electronic contribution:     -2.23283       0.03003       0.04478
Nuclear contribution   :     -2.62838       0.18686       0.21974
                        -----------------------------------------
Total Dipole Moment    :     -4.86121       0.21689       0.26452
                        -----------------------------------------
Magnitude (a.u.)       :      4.87323
Magnitude (Debye)      :     12.38676

                             ****ORCA TERMINATED NORMALLY****
TOTAL RUN TIME: 0 days 0 hours 0 minutes 9 seconds 421 msec
