                         Program Version 4.0.0.2 - RELEASE -
|  1> ! WB97X-D3 6-31G(d) VerySlowConv
|  2> ! KDIIS NOSOSCF
|  3> %base "Scan_29"
|  4>
|  5> %scf
|  6> maxiter 999
|  7> end
|  8>
|  9> * xyz 0 1
| 10> C         -4.926635535798    2.432355551312    0.138592141696
| 11> O         -1.568070094033    2.357383315780    0.037840893786
| 12> H         -5.466533249451    3.140084657639   -0.456994346606
| 13> H         -5.459819095562    1.768700461541    0.788492495558
| 14> H         -3.852330228330    2.392691232929    0.089125554073
| 15> H         -0.613721796826    2.400414780800    0.079943261492
| 16> **                         ****END OF INPUT****

CARTESIAN COORDINATES (ANGSTROEM)
---------------------------------
  C     -4.926636    2.432356    0.138592
  O     -1.568070    2.357383    0.037841
  H     -5.466533    3.140085   -0.456994
  H     -5.459819    1.768700    0.788492
  H     -3.852330    2.392691    0.089126
  H     -0.613722    2.400415    0.079943

 Total Charge           Charge          ....    0
 Multiplicity           Mult            ....    1
 Number of Electrons    NEL             ....   18
 Basis Dimension        Dim             ....   36

ORBITAL ENERGIES
----------------

  NO   OCC          E(Eh)            E(eV)
   0   2.0000     -19.167484      -521.5738
   1   2.0000     -10.379347      -282.4364
   2   2.0000      -0.974431       -26.5156
   3   2.0000      -0.850326       -23.1385
   4   2.0000      -0.584793       -15.9130
   5   2.0000      -0.574605       -15.6358
   6   2.0000      -0.450292       -12.2531
   7   2.0000      -0.303141        -8.2489
   8   2.0000      -0.269047        -7.3212
   9   0.0000      -0.115037        -3.1303
  10   0.0000       0.184087         5.0092
  11   0.0000       0.235011         6.3950
  12   0.0000       0.241156         6.5622
  13   0.0000       0.316073         8.6008

MULLIKEN ATOMIC CHARGES
-----------------------
   0 C :   -0.438265
   1 O :   -0.728764
   2 H :    0.233805
   3 H :    0.233791
   4 H :    0.319683
   5 H :    0.379750
Sum of atomic charges:   -0.0000000

LOEWDIN ATOMIC CHARGES
----------------------
   0 C :   -0.186969
   1 O :   -0.637321
   2 H :    0.169605
   3 H :    0.169490
   4 H :    0.207027
   5 H :    0.278168

  Mayer bond orders larger than 0.1
B(  0-C ,  1-O ) :   0.8488 B(  0-C ,  2-H ) :   0.9235 B(  0-C ,  3-H ) :   0.9234
B(  0-C ,  4-H ) :   0.8458 B(  1-O ,  5-H ) :   0.8058

Dispersion correction           -0.000438784
FINAL SINGLE POINT ENERGY      -115.428049943247

DIPOLE MOMENT
-------------
                                X             Y             Z
Electronic contribution:      1.19960      -0.03988      -0.05075
Nuclear contribution   :     -2.73222       0.11736       0.14394
                        -----------------------------------------
Total Dipole Moment    :     -1.53262       0.07748       0.09319
                        -----------------------------------------
Magnitude (a.u.)       :      1.53741
Magnitude (Debye)      :      3.90778

                             ****ORCA TERMINATED NORMALLY****
TOTAL RUN TIME: 0 days 0 hours 0 minutes 6 seconds 603 msec
