                         Program Version 4.0.0.2 - RELEASE -
|  1> ! WB97X-D3 6-31G(d) VerySlowConv
|  2> ! KDIIS NOSOSCF
|  3> %base "Scan_3"
|  4>
|  5> %scf
|  6> maxiter 999
|  7> end
|  8>
|  9> * xyz 0 1
| 10> C         -3.861395460845    2.344944051678    0.036551569349
| 11> O         -2.748948132645    2.247809244683   -0.076443285243
| 12> H         -4.341645588662    3.363988009263   -0.154115248083
| 13> H         -4.335194078152    2.054705879241    1.034910864226
| 14> H         -4.403058359095    1.688400778191   -0.683454343682
| 15> H         -2.196868380600    2.791782036943    0.519550443433
| 16> **                         ****END OF INPUT****

CARTESIAN COORDINATES (ANGSTROEM)
---------------------------------
  C     -3.861395    2.344944    0.036552
  O     -2.748948    2.247809   -0.076443
  H     -4.341646    3.363988   -0.154115
  H     -4.335194    2.054706    1.034911
  H     -4.403058    1.688401   -0.683454
  H     -2.196868    2.791782    0.519550

 Total Charge           Charge          ....    0
 Multiplicity           Mult            ....    1
 Number of Electrons    NEL             ....   18
 Basis Dimension        Dim             ....   36

ORBITAL ENERGIES
----------------

  NO   OCC          E(Eh)            E(eV)
   0   2.0000     -19.257608      -524.0262
   1   2.0000     -10.308578      -280.5107
   2   2.0000      -1.260207       -34.2920
   3   2.0000      -0.796515       -21.6743
   4   2.0000      -0.662388       -18.0245
   5   2.0000      -0.584814       -15.9136
   6   2.0000      -0.581182       -15.8148
   7   2.0000      -0.382272       -10.4021
   8   2.0000      -0.336257        -9.1500
   9   0.0000       0.160322         4.3626
  10   0.0000       0.226691         6.1686
  11   0.0000       0.275728         7.5029
  12   0.0000       0.287598         7.8259
  13   0.0000       0.370217        10.0741

MULLIKEN ATOMIC CHARGES
-----------------------
   0 C :   -0.265141
   1 O :   -0.433186
   2 H :    0.068090
   3 H :    0.068262
   4 H :    0.134607
   5 H :    0.427368
Sum of atomic charges:   -0.0000000

LOEWDIN ATOMIC CHARGES
----------------------
   0 C :   -0.308928
   1 O :   -0.230815
   2 H :    0.049567
   3 H :    0.049439
   4 H :    0.103843
   5 H :    0.336894

  Mayer bond orders larger than 0.1
B(  0-C ,  1-O ) :   1.1521 B(  0-C ,  2-H ) :   0.9289 B(  0-C ,  3-H ) :   0.9288
B(  0-C ,  4-H ) :   0.9301 B(  1-O ,  5-H ) :   0.7626

Dispersion correction           -0.000188864
FINAL SINGLE POINT ENERGY      -115.582235899496

DIPOLE MOMENT
-------------
                                X             Y             Z
Electronic contribution:      2.27873      -0.26413      -0.30408
Nuclear contribution   :     -1.93787       0.60677       0.67866
                        -----------------------------------------
Total Dipole Moment    :      0.34086       0.34265       0.37458
                        -----------------------------------------
Magnitude (a.u.)       :      0.61147
Magnitude (Debye)      :      1.55424

                             ****ORCA TERMINATED NORMALLY****
TOTAL RUN TIME: 0 days 0 hours 0 minutes 5 seconds 580 msec
