                         Program Version 4.0.0.2 - RELEASE -
|  1> ! WB97X-D3 6-31G(d) VerySlowConv
|  2> ! KDIIS NOSOSCF
|  3> %base "Scan_30"
|  4>
|  5> %scf
|  6> maxiter 999
|  7> end
|  8>
|  9> * xyz 0 1
| 10> C         -4.961228884267    2.434408873705    0.141040442265
| 11> O         -1.500194534021    2.364805738455    0.045631566333
| 12> H         -5.500697926180    3.137414856199   -0.460249936357
| 13> H         -5.493973507701    1.765528415304    0.785692573215
| 14> H         -3.887021970786    2.398817703601    0.096052618889
| 15> H         -0.543993177045    2.390654412735    0.068832735655
| 16> **                         ****END OF INPUT****

CARTESIAN COORDINATES (ANGSTROEM)
---------------------------------
  C     -4.961229    2.434409    0.141040
  O     -1.500195    2.364806    0.045632
  H     -5.500698    3.137415   -0.460250
  H     -5.493974    1.765528    0.785693
  H     -3.887022    2.398818    0.096053
  H     -0.543993    2.390654    0.068833

 Total Charge           Charge          ....    0
 Multiplicity           Mult            ....    1
 Number of Electrons    NEL             ....   18
 Basis Dimension        Dim             ....   36

ORBITAL ENERGIES
----------------

  NO   OCC          E(Eh)            E(eV)
   0   2.0000     -18.938332      -515.3382
   1   2.0000     -10.561647      -287.3970
   2   2.0000      -0.991258       -26.9735
   3   2.0000      -0.772066       -21.0090
   4   2.0000      -0.726386       -19.7660
   5   2.0000      -0.702659       -19.1203
   6   2.0000      -0.272149        -7.4055
   7   2.0000      -0.109910        -2.9908
   8   2.0000      -0.109870        -2.9897
   9   0.0000      -0.210731        -5.7343
  10   0.0000       0.093209         2.5363
  11   0.0000       0.136825         3.7232
  12   0.0000       0.225504         6.1363
  13   0.0000       0.387435        10.5426

MULLIKEN ATOMIC CHARGES
-----------------------
   0 C :   -0.115309
   1 O :   -1.172206
   2 H :    0.308806
   3 H :    0.308761
   4 H :    0.387976
   5 H :    0.281972
Sum of atomic charges:   -0.0000000

LOEWDIN ATOMIC CHARGES
----------------------
   0 C :    0.234658
   1 O :   -1.148107
   2 H :    0.215447
   3 H :    0.215329
   4 H :    0.259863
   5 H :    0.222809

  Mayer bond orders larger than 0.1
B(  0-C ,  2-H ) :   0.8788 B(  0-C ,  3-H ) :   0.8788 B(  0-C ,  4-H ) :   0.6956
B(  1-O ,  4-H ) :   0.1973 B(  1-O ,  5-H ) :   0.8465

Dispersion correction           -0.000433195
FINAL SINGLE POINT ENERGY      -115.341718922609

DIPOLE MOMENT
-------------
                                X             Y             Z
Electronic contribution:     -2.53990       0.03735       0.05458
Nuclear contribution   :     -2.83733       0.09284       0.11755
                        -----------------------------------------
Total Dipole Moment    :     -5.37723       0.13019       0.17213
                        -----------------------------------------
Magnitude (a.u.)       :      5.38156
Magnitude (Debye)      :     13.67884

                             ****ORCA TERMINATED NORMALLY****
TOTAL RUN TIME: 0 days 0 hours 0 minutes 8 seconds 860 msec
