                         Program Version 4.0.0.2 - RELEASE -
|  1> ! WB97X-D3 6-31G(d) VerySlowConv
|  2> ! KDIIS NOSOSCF
|  3> %base "Scan_31"
|  4>
|  5> %scf
|  6> maxiter 999
|  7> end
|  8>
|  9> * xyz 0 1
| 10> C         -4.995732942556    2.434228835203    0.141029075627
| 11> O         -1.432405555788    2.365090686857    0.045576219237
| 12> H         -5.534023997202    3.137552061239   -0.460706219000
| 13> H         -5.527292144499    1.764879778206    0.785949766698
| 14> H         -3.921744001781    2.402005565375    0.099747952216
| 15> H         -0.475911358174    2.387873073120    0.065403205222
| 16> **                         ****END OF INPUT****

CARTESIAN COORDINATES (ANGSTROEM)
---------------------------------
  C     -4.995733    2.434229    0.141029
  O     -1.432406    2.365091    0.045576
  H     -5.534024    3.137552   -0.460706
  H     -5.527292    1.764880    0.785950
  H     -3.921744    2.402006    0.099748
  H     -0.475911    2.387873    0.065403

 Total Charge           Charge          ....    0
 Multiplicity           Mult            ....    1
 Number of Electrons    NEL             ....   18
 Basis Dimension        Dim             ....   36

ORBITAL ENERGIES
----------------

  NO   OCC          E(Eh)            E(eV)
   0   2.0000     -18.932054      -515.1674
   1   2.0000     -10.568391      -287.5805
   2   2.0000      -0.997370       -27.1398
   3   2.0000      -0.765631       -20.8339
   4   2.0000      -0.732221       -19.9247
   5   2.0000      -0.709688       -19.3116
   6   2.0000      -0.264892        -7.2081
   7   2.0000      -0.103505        -2.8165
   8   2.0000      -0.103457        -2.8152
   9   0.0000      -0.216526        -5.8920
  10   0.0000       0.088754         2.4151
  11   0.0000       0.132456         3.6043
  12   0.0000       0.214909         5.8480
  13   0.0000       0.389826        10.6077

MULLIKEN ATOMIC CHARGES
-----------------------
   0 C :   -0.112620
   1 O :   -1.181863
   2 H :    0.312323
   3 H :    0.312281
   4 H :    0.391524
   5 H :    0.278356
Sum of atomic charges:   -0.0000000

LOEWDIN ATOMIC CHARGES
----------------------
   0 C :    0.237863
   1 O :   -1.153505
   2 H :    0.217431
   3 H :    0.217317
   4 H :    0.261414
   5 H :    0.219481

  Mayer bond orders larger than 0.1
B(  0-C ,  2-H ) :   0.8775 B(  0-C ,  3-H ) :   0.8775 B(  0-C ,  4-H ) :   0.7095
B(  1-O ,  4-H ) :   0.1748 B(  1-O ,  5-H ) :   0.8510

Dispersion correction           -0.000428243
FINAL SINGLE POINT ENERGY      -115.334815365643

DIPOLE MOMENT
-------------
                                X             Y             Z
Electronic contribution:     -2.67644       0.03703       0.05496
Nuclear contribution   :     -2.94240       0.09248       0.11772
                        -----------------------------------------
Total Dipole Moment    :     -5.61884       0.12950       0.17269
                        -----------------------------------------
Magnitude (a.u.)       :      5.62298
Magnitude (Debye)      :     14.29249

                             ****ORCA TERMINATED NORMALLY****
TOTAL RUN TIME: 0 days 0 hours 0 minutes 7 seconds 81 msec
