                         Program Version 4.0.0.2 - RELEASE -
|  1> ! WB97X-D3 6-31G(d) VerySlowConv
|  2> ! KDIIS NOSOSCF
|  3> %base "Scan_32"
|  4>
|  5> %scf
|  6> maxiter 999
|  7> end
|  8>
|  9> * xyz 0 1
| 10> C         -5.029695621919    2.434948041798    0.142005212786
| 11> O         -1.363979098557    2.366740820641    0.047017520099
| 12> H         -5.568436252611    3.136895066961   -0.460869822732
| 13> H         -5.561703240758    1.764592849708    0.785449915686
| 14> H         -3.956210904695    2.404305200261    0.102464564721
| 15> H         -0.407084881460    2.384148020632    0.060932609439
| 16> **                         ****END OF INPUT****

CARTESIAN COORDINATES (ANGSTROEM)
---------------------------------
  C     -5.029696    2.434948    0.142005
  O     -1.363979    2.366741    0.047018
  H     -5.568436    3.136895   -0.460870
  H     -5.561703    1.764593    0.785450
  H     -3.956211    2.404305    0.102465
  H     -0.407085    2.384148    0.060933

 Total Charge           Charge          ....    0
 Multiplicity           Mult            ....    1
 Number of Electrons    NEL             ....   18
 Basis Dimension        Dim             ....   36

ORBITAL ENERGIES
----------------

  NO   OCC          E(Eh)            E(eV)
   0   2.0000     -18.926096      -515.0053
   1   2.0000     -10.574897      -287.7576
   2   2.0000      -1.003209       -27.2987
   3   2.0000      -0.759507       -20.6672
   4   2.0000      -0.737479       -20.0678
   5   2.0000      -0.716642       -19.5008
   6   2.0000      -0.257993        -7.0204
   7   2.0000      -0.097411        -2.6507
   8   2.0000      -0.097366        -2.6495
   9   0.0000      -0.222067        -6.0428
  10   0.0000       0.084550         2.3007
  11   0.0000       0.128098         3.4857
  12   0.0000       0.204998         5.5783
  13   0.0000       0.392396        10.6776

MULLIKEN ATOMIC CHARGES
-----------------------
   0 C :   -0.109954
   1 O :   -1.190830
   2 H :    0.315307
   3 H :    0.315268
   4 H :    0.394914
   5 H :    0.275295
Sum of atomic charges:    0.0000000

LOEWDIN ATOMIC CHARGES
----------------------
   0 C :    0.240989
   1 O :   -1.158213
   2 H :    0.219052
   3 H :    0.218946
   4 H :    0.262752
   5 H :    0.216474

  Mayer bond orders larger than 0.1
B(  0-C ,  2-H ) :   0.8763 B(  0-C ,  3-H ) :   0.8763 B(  0-C ,  4-H ) :   0.7219
B(  1-O ,  4-H ) :   0.1538 B(  1-O ,  5-H ) :   0.8551

Dispersion correction           -0.000419510
FINAL SINGLE POINT ENERGY      -115.328243573324

DIPOLE MOMENT
-------------
                                X             Y             Z
Electronic contribution:     -2.80755       0.03982       0.05878
Nuclear contribution   :     -3.05040       0.08644       0.11167
                        -----------------------------------------
Total Dipole Moment    :     -5.85794       0.12626       0.17045
                        -----------------------------------------
Magnitude (a.u.)       :      5.86178
Magnitude (Debye)      :     14.89947

                             ****ORCA TERMINATED NORMALLY****
TOTAL RUN TIME: 0 days 0 hours 0 minutes 5 seconds 977 msec
