                         Program Version 4.0.0.2 - RELEASE -
|  1> ! WB97X-D3 6-31G(d) VerySlowConv
|  2> ! KDIIS NOSOSCF
|  3> %base "Scan_33"
|  4>
|  5> %scf
|  6> maxiter 999
|  7> end
|  8>
|  9> * xyz 0 1
| 10> C         -5.063992470705    2.435504058155    0.142803488387
| 11> O         -1.295706429491    2.367793971942    0.047803305015
| 12> H         -5.602369870076    3.136756349025   -0.461068239795
| 13> H         -5.595633214154    1.764224286423    0.785460115604
| 14> H         -3.990861389712    2.406330737256    0.104880753762
| 15> H         -0.338546625863    2.381020597201    0.057120577029
| 16> **                         ****END OF INPUT****

CARTESIAN COORDINATES (ANGSTROEM)
---------------------------------
  C     -5.063992    2.435504    0.142803
  O     -1.295706    2.367794    0.047803
  H     -5.602370    3.136756   -0.461068
  H     -5.595633    1.764224    0.785460
  H     -3.990861    2.406331    0.104881
  H     -0.338547    2.381021    0.057121

 Total Charge           Charge          ....    0
 Multiplicity           Mult            ....    1
 Number of Electrons    NEL             ....   18
 Basis Dimension        Dim             ....   36

ORBITAL ENERGIES
----------------

  NO   OCC          E(Eh)            E(eV)
   0   2.0000     -18.919425      -514.8237
   1   2.0000     -10.580917      -287.9214
   2   2.0000      -1.008798       -27.4508
   3   2.0000      -0.753207       -20.4958
   4   2.0000      -0.742676       -20.2093
   5   2.0000      -0.723148       -19.6778
   6   2.0000      -0.251003        -6.8301
   7   2.0000      -0.091136        -2.4799
   8   2.0000      -0.091095        -2.4788
   9   0.0000      -0.227370        -6.1870
  10   0.0000       0.080423         2.1884
  11   0.0000       0.123979         3.3736
  12   0.0000       0.195624         5.3232
  13   0.0000       0.395286        10.7563

MULLIKEN ATOMIC CHARGES
-----------------------
   0 C :   -0.108127
   1 O :   -1.199369
   2 H :    0.318357
   3 H :    0.318320
   4 H :    0.399142
   5 H :    0.271677
Sum of atomic charges:    0.0000000

LOEWDIN ATOMIC CHARGES
----------------------
   0 C :    0.243772
   1 O :   -1.162645
   2 H :    0.220743
   3 H :    0.220644
   4 H :    0.264421
   5 H :    0.213065

  Mayer bond orders larger than 0.1
B(  0-C ,  2-H ) :   0.8751 B(  0-C ,  3-H ) :   0.8751 B(  0-C ,  4-H ) :   0.7340
B(  1-O ,  4-H ) :   0.1323 B(  1-O ,  5-H ) :   0.8597

Dispersion correction           -0.000403328
FINAL SINGLE POINT ENERGY      -115.322031240359

DIPOLE MOMENT
-------------
                                X             Y             Z
Electronic contribution:     -2.94490       0.04197       0.06190
Nuclear contribution   :     -3.15723       0.08237       0.10778
                        -----------------------------------------
Total Dipole Moment    :     -6.10213       0.12434       0.16969
                        -----------------------------------------
Magnitude (a.u.)       :      6.10576
Magnitude (Debye)      :     15.51961

                             ****ORCA TERMINATED NORMALLY****
TOTAL RUN TIME: 0 days 0 hours 0 minutes 6 seconds 312 msec
