                         Program Version 4.0.0.2 - RELEASE -
|  1> ! WB97X-D3 6-31G(d) VerySlowConv
|  2> ! KDIIS NOSOSCF
|  3> %base "Scan_34"
|  4>
|  5> %scf
|  6> maxiter 999
|  7> end
|  8>
|  9> * xyz 0 1
| 10> C         -5.098157919596    2.436067098565    0.143608811271
| 11> O         -1.227371240117    2.368595492676    0.048312010982
| 12> H         -5.636463577984    3.136598382142   -0.461064176763
| 13> H         -5.629724633738    1.764058349785    0.785471306614
| 14> H         -4.025371368658    2.408152369140    0.107071913275
| 15> H         -0.270021259908    2.378158307694    0.053600134622
| 16> **                         ****END OF INPUT****

CARTESIAN COORDINATES (ANGSTROEM)
---------------------------------
  C     -5.098158    2.436067    0.143609
  O     -1.227371    2.368595    0.048312
  H     -5.636464    3.136598   -0.461064
  H     -5.629725    1.764058    0.785471
  H     -4.025371    2.408152    0.107072
  H     -0.270021    2.378158    0.053600

 Total Charge           Charge          ....    0
 Multiplicity           Mult            ....    1
 Number of Electrons    NEL             ....   18
 Basis Dimension        Dim             ....   36

ORBITAL ENERGIES
----------------

  NO   OCC          E(Eh)            E(eV)
   0   2.0000     -18.913385      -514.6594
   1   2.0000     -10.586710      -288.0790
   2   2.0000      -1.014094       -27.5949
   3   2.0000      -0.747540       -20.3416
   4   2.0000      -0.747428       -20.3386
   5   2.0000      -0.729291       -19.8450
   6   2.0000      -0.244503        -6.6533
   7   2.0000      -0.085342        -2.3223
   8   2.0000      -0.085307        -2.3213
   9   0.0000      -0.232408        -6.3242
  10   0.0000       0.076492         2.0815
  11   0.0000       0.120037         3.2664
  12   0.0000       0.186772         5.0823
  13   0.0000       0.398180        10.8350

MULLIKEN ATOMIC CHARGES
-----------------------
   0 C :   -0.106233
   1 O :   -1.206399
   2 H :    0.320985
   3 H :    0.320950
   4 H :    0.402586
   5 H :    0.268111
Sum of atomic charges:   -0.0000000

LOEWDIN ATOMIC CHARGES
----------------------
   0 C :    0.246419
   1 O :   -1.166065
   2 H :    0.222165
   3 H :    0.222072
   4 H :    0.265681
   5 H :    0.209727

  Mayer bond orders larger than 0.1
B(  0-C ,  2-H ) :   0.8739 B(  0-C ,  3-H ) :   0.8739 B(  0-C ,  4-H ) :   0.7446
B(  1-O ,  4-H ) :   0.1133 B(  1-O ,  5-H ) :   0.8639

Dispersion correction           -0.000379498
FINAL SINGLE POINT ENERGY      -115.316162314626

DIPOLE MOMENT
-------------
                                X             Y             Z
Electronic contribution:     -3.07843       0.04411       0.06499
Nuclear contribution   :     -3.26453       0.07896       0.10462
                        -----------------------------------------
Total Dipole Moment    :     -6.34295       0.12307       0.16961
                        -----------------------------------------
Magnitude (a.u.)       :      6.34641
Magnitude (Debye)      :     16.13130

                             ****ORCA TERMINATED NORMALLY****
TOTAL RUN TIME: 0 days 0 hours 0 minutes 6 seconds 257 msec
