                         Program Version 4.0.0.2 - RELEASE -
|  1> ! WB97X-D3 6-31G(d) VerySlowConv
|  2> ! KDIIS NOSOSCF
|  3> %base "Scan_35"
|  4>
|  5> %scf
|  6> maxiter 999
|  7> end
|  8>
|  9> * xyz 0 1
| 10> C         -5.132319614859    2.436622569776    0.144405789144
| 11> O         -1.159046726484    2.369057443134    0.048447411819
| 12> H         -5.670545955402    3.136530763128   -0.460966231796
| 13> H         -5.663804927981    1.763977347905    0.785581309236
| 14> H         -4.059839911970    2.409819085315    0.109092473709
| 15> H         -0.201552863305    2.375622790744    0.050439247888
| 16> **                         ****END OF INPUT****

CARTESIAN COORDINATES (ANGSTROEM)
---------------------------------
  C     -5.132320    2.436623    0.144406
  O     -1.159047    2.369057    0.048447
  H     -5.670546    3.136531   -0.460966
  H     -5.663805    1.763977    0.785581
  H     -4.059840    2.409819    0.109092
  H     -0.201553    2.375623    0.050439

 Total Charge           Charge          ....    0
 Multiplicity           Mult            ....    1
 Number of Electrons    NEL             ....   18
 Basis Dimension        Dim             ....   36

ORBITAL ENERGIES
----------------

  NO   OCC          E(Eh)            E(eV)
   0   2.0000     -18.908094      -514.5154
   1   2.0000     -10.592051      -288.2244
   2   2.0000      -1.019097       -27.7310
   3   2.0000      -0.752142       -20.4668
   4   2.0000      -0.742201       -20.1963
   5   2.0000      -0.734887       -19.9973
   6   2.0000      -0.238443        -6.4884
   7   2.0000      -0.079935        -2.1751
   8   2.0000      -0.079904        -2.1743
   9   0.0000      -0.237176        -6.4539
  10   0.0000       0.072761         1.9799
  11   0.0000       0.116277         3.1640
  12   0.0000       0.179131         4.8744
  13   0.0000       0.401117        10.9149

MULLIKEN ATOMIC CHARGES
-----------------------
   0 C :   -0.105853
   1 O :   -1.212423
   2 H :    0.323491
   3 H :    0.323459
   4 H :    0.407282
   5 H :    0.264044
Sum of atomic charges:   -0.0000000

LOEWDIN ATOMIC CHARGES
----------------------
   0 C :    0.248521
   1 O :   -1.168965
   2 H :    0.223519
   3 H :    0.223431
   4 H :    0.267436
   5 H :    0.206059

  Mayer bond orders larger than 0.1
B(  0-C ,  2-H ) :   0.8728 B(  0-C ,  3-H ) :   0.8728 B(  0-C ,  4-H ) :   0.7537
B(  1-O ,  5-H ) :   0.8683

Dispersion correction           -0.000351170
FINAL SINGLE POINT ENERGY      -115.310621596441

DIPOLE MOMENT
-------------
                                X             Y             Z
Electronic contribution:     -3.21325       0.04618       0.06801
Nuclear contribution   :     -3.37180       0.07648       0.10248
                        -----------------------------------------
Total Dipole Moment    :     -6.58505       0.12266       0.17049
                        -----------------------------------------
Magnitude (a.u.)       :      6.58840
Magnitude (Debye)      :     16.74639

                             ****ORCA TERMINATED NORMALLY****
TOTAL RUN TIME: 0 days 0 hours 0 minutes 6 seconds 867 msec
