                         Program Version 4.0.0.2 - RELEASE -
|  1> ! WB97X-D3 6-31G(d) VerySlowConv
|  2> ! KDIIS NOSOSCF
|  3> %base "Scan_36"
|  4>
|  5> %scf
|  6> maxiter 999
|  7> end
|  8>
|  9> * xyz 0 1
| 10> C         -5.166462320360    2.437178266194    0.145202921380
| 11> O         -1.090728653922    2.369236709118    0.048272015794
| 12> H         -5.704640894003    3.136525746174   -0.460776994515
| 13> H         -5.697898103386    1.763981225789    0.785762383703
| 14> H         -4.094260379557    2.411346461894    0.110959537062
| 15> H         -0.133119648772    2.373361590833    0.047580136577
| 16> **                         ****END OF INPUT****

CARTESIAN COORDINATES (ANGSTROEM)
---------------------------------
  C     -5.166462    2.437178    0.145203
  O     -1.090729    2.369237    0.048272
  H     -5.704641    3.136526   -0.460777
  H     -5.697898    1.763981    0.785762
  H     -4.094260    2.411346    0.110960
  H     -0.133120    2.373362    0.047580

 Total Charge           Charge          ....    0
 Multiplicity           Mult            ....    1
 Number of Electrons    NEL             ....   18
 Basis Dimension        Dim             ....   36

ORBITAL ENERGIES
----------------

  NO   OCC          E(Eh)            E(eV)
   0   2.0000     -18.902010      -514.3498
   1   2.0000     -10.597198      -288.3644
   2   2.0000      -1.023916       -27.8622
   3   2.0000      -0.756576       -20.5875
   4   2.0000      -0.741351       -20.1732
   5   2.0000      -0.735749       -20.0207
   6   2.0000      -0.232303        -6.3213
   7   2.0000      -0.074403        -2.0246
   8   2.0000      -0.074374        -2.0238
   9   0.0000      -0.241766        -6.5788
  10   0.0000       0.069114         1.8807
  11   0.0000       0.112640         3.0651
  12   0.0000       0.171595         4.6693
  13   0.0000       0.404244        11.0000

MULLIKEN ATOMIC CHARGES
-----------------------
   0 C :   -0.104715
   1 O :   -1.217525
   2 H :    0.325853
   3 H :    0.325822
   4 H :    0.410689
   5 H :    0.259878
Sum of atomic charges:   -0.0000000

LOEWDIN ATOMIC CHARGES
----------------------
   0 C :    0.250807
   1 O :   -1.171554
   2 H :    0.224796
   3 H :    0.224713
   4 H :    0.268765
   5 H :    0.202472

  Mayer bond orders larger than 0.1
B(  0-C ,  2-H ) :   0.8718 B(  0-C ,  3-H ) :   0.8718 B(  0-C ,  4-H ) :   0.7629
B(  1-O ,  5-H ) :   0.8725

Dispersion correction           -0.000321682
FINAL SINGLE POINT ENERGY      -115.305407081460

DIPOLE MOMENT
-------------
                                X             Y             Z
Electronic contribution:     -3.34934       0.04836       0.07117
Nuclear contribution   :     -3.47910       0.07476       0.10117
                        -----------------------------------------
Total Dipole Moment    :     -6.82844       0.12311       0.17233
                        -----------------------------------------
Magnitude (a.u.)       :      6.83172
Magnitude (Debye)      :     17.36486

                             ****ORCA TERMINATED NORMALLY****
TOTAL RUN TIME: 0 days 0 hours 0 minutes 7 seconds 266 msec
