                         Program Version 4.0.0.2 - RELEASE -
|  1> ! WB97X-D3 6-31G(d) VerySlowConv
|  2> ! KDIIS NOSOSCF
|  3> %base "Scan_37"
|  4>
|  5> %scf
|  6> maxiter 999
|  7> end
|  8>
|  9> * xyz 0 1
| 10> C         -5.200594657600    2.437730209993    0.145995864583
| 11> O         -1.022424167155    2.369185168752    0.047842911565
| 12> H         -5.738737100573    3.136582391202   -0.460511774130
| 13> H         -5.731992685139    1.764054859708    0.786012100016
| 14> H         -4.128640979392    2.412749142352    0.112689161202
| 15> H         -0.064720410142    2.371328227994    0.044971736765
| 16> **                         ****END OF INPUT****

CARTESIAN COORDINATES (ANGSTROEM)
---------------------------------
  C     -5.200595    2.437730    0.145996
  O     -1.022424    2.369185    0.047843
  H     -5.738737    3.136582   -0.460512
  H     -5.731993    1.764055    0.786012
  H     -4.128641    2.412749    0.112689
  H     -0.064720    2.371328    0.044972

 Total Charge           Charge          ....    0
 Multiplicity           Mult            ....    1
 Number of Electrons    NEL             ....   18
 Basis Dimension        Dim             ....   36

ORBITAL ENERGIES
----------------

  NO   OCC          E(Eh)            E(eV)
   0   2.0000     -18.896590      -514.2024
   1   2.0000     -10.601857      -288.4912
   2   2.0000      -1.028347       -27.9827
   3   2.0000      -0.760648       -20.6983
   4   2.0000      -0.746151       -20.3038
   5   2.0000      -0.731028       -19.8923
   6   2.0000      -0.226732        -6.1697
   7   2.0000      -0.069365        -1.8875
   8   2.0000      -0.069360        -1.8874
   9   0.0000      -0.245997        -6.6939
  10   0.0000       0.065703         1.7879
  11   0.0000       0.109260         2.9731
  12   0.0000       0.164872         4.4864
  13   0.0000       0.407224        11.0811

MULLIKEN ATOMIC CHARGES
-----------------------
   0 C :   -0.103842
   1 O :   -1.221217
   2 H :    0.327821
   3 H :    0.327792
   4 H :    0.413573
   5 H :    0.255873
Sum of atomic charges:   -0.0000000

LOEWDIN ATOMIC CHARGES
----------------------
   0 C :    0.252624
   1 O :   -1.173218
   2 H :    0.225870
   3 H :    0.225791
   4 H :    0.269872
   5 H :    0.199061

  Mayer bond orders larger than 0.1
B(  0-C ,  2-H ) :   0.8708 B(  0-C ,  3-H ) :   0.8708 B(  0-C ,  4-H ) :   0.7708
B(  1-O ,  5-H ) :   0.8764

Dispersion correction           -0.000292740
FINAL SINGLE POINT ENERGY      -115.300520126474

DIPOLE MOMENT
-------------
                                X             Y             Z
Electronic contribution:     -3.47928       0.05022       0.07394
Nuclear contribution   :     -3.58639       0.07366       0.10055
                        -----------------------------------------
Total Dipole Moment    :     -7.06567       0.12389       0.17449
                        -----------------------------------------
Magnitude (a.u.)       :      7.06891
Magnitude (Debye)      :     17.96774

                             ****ORCA TERMINATED NORMALLY****
TOTAL RUN TIME: 0 days 0 hours 0 minutes 14 seconds 93 msec
