                         Program Version 4.0.0.2 - RELEASE -
|  1> ! WB97X-D3 6-31G(d) VerySlowConv
|  2> ! KDIIS NOSOSCF
|  3> %base "Scan_38"
|  4>
|  5> %scf
|  6> maxiter 999
|  7> end
|  8>
|  9> * xyz 0 1
| 10> C         -5.234718334677    2.438277538117    0.146783669539
| 11> O         -0.954133699302    2.368950871286    0.047213168190
| 12> H         -5.772833764339    3.136693053064   -0.460180838983
| 13> H         -5.766087860814    1.764188772919    0.786321846945
| 14> H         -4.162986660520    2.414040737680    0.114296360589
| 15> H          0.003650319650    2.369479026936    0.042565793721
| 16> **                         ****END OF INPUT****

CARTESIAN COORDINATES (ANGSTROEM)
---------------------------------
  C     -5.234718    2.438278    0.146784
  O     -0.954134    2.368951    0.047213
  H     -5.772834    3.136693   -0.460181
  H     -5.766088    1.764189    0.786322
  H     -4.162987    2.414041    0.114296
  H      0.003650    2.369479    0.042566

 Total Charge           Charge          ....    0
 Multiplicity           Mult            ....    1
 Number of Electrons    NEL             ....   18
 Basis Dimension        Dim             ....   36

ORBITAL ENERGIES
----------------

  NO   OCC          E(Eh)            E(eV)
   0   2.0000     -18.891208      -514.0559
   1   2.0000     -10.606379      -288.6142
   2   2.0000      -1.032649       -28.0998
   3   2.0000      -0.764617       -20.8063
   4   2.0000      -0.751027       -20.4365
   5   2.0000      -0.726109       -19.7584
   6   2.0000      -0.221309        -6.0221
   7   2.0000      -0.064435        -1.7534
   8   2.0000      -0.064413        -1.7528
   9   0.0000      -0.250107        -6.8058
  10   0.0000       0.062402         1.6981
  11   0.0000       0.105970         2.8836
  12   0.0000       0.158600         4.3157
  13   0.0000       0.410292        11.1646

MULLIKEN ATOMIC CHARGES
-----------------------
   0 C :   -0.103487
   1 O :   -1.224441
   2 H :    0.329917
   3 H :    0.329889
   4 H :    0.416452
   5 H :    0.251670
Sum of atomic charges:   -0.0000000

LOEWDIN ATOMIC CHARGES
----------------------
   0 C :    0.254455
   1 O :   -1.175078
   2 H :    0.226990
   3 H :    0.226914
   4 H :    0.271054
   5 H :    0.195664

  Mayer bond orders larger than 0.1
B(  0-C ,  2-H ) :   0.8699 B(  0-C ,  3-H ) :   0.8699 B(  0-C ,  4-H ) :   0.7781
B(  1-O ,  5-H ) :   0.8801

Dispersion correction           -0.000264751
FINAL SINGLE POINT ENERGY      -115.295950959010

DIPOLE MOMENT
-------------
                                X             Y             Z
Electronic contribution:     -3.61293       0.05238       0.07705
Nuclear contribution   :     -3.69366       0.07307       0.10048
                        -----------------------------------------
Total Dipole Moment    :     -7.30659       0.12545       0.17754
                        -----------------------------------------
Magnitude (a.u.)       :      7.30982
Magnitude (Debye)      :     18.58010

                             ****ORCA TERMINATED NORMALLY****
TOTAL RUN TIME: 0 days 0 hours 0 minutes 8 seconds 684 msec
