                         Program Version 4.0.0.2 - RELEASE -
|  1> ! WB97X-D3 6-31G(d) VerySlowConv
|  2> ! KDIIS NOSOSCF
|  3> %base "Scan_39"
|  4>
|  5> %scf
|  6> maxiter 999
|  7> end
|  8>
|  9> * xyz 0 1
| 10> C         -5.268835504167    2.438819651347    0.147565727096
| 11> O         -0.885856991531    2.368573031018    0.046425481473
| 12> H         -5.806929287431    3.136851332678   -0.459794031892
| 13> H         -5.800182126559    1.764373804625    0.786684298705
| 14> H         -4.197302571245    2.415234578163    0.115795965560
| 15> H          0.071996480934    2.367777602171    0.040322559058
| 16> **                         ****END OF INPUT****

CARTESIAN COORDINATES (ANGSTROEM)
---------------------------------
  C     -5.268836    2.438820    0.147566
  O     -0.885857    2.368573    0.046425
  H     -5.806929    3.136851   -0.459794
  H     -5.800182    1.764374    0.786684
  H     -4.197303    2.415235    0.115796
  H      0.071996    2.367778    0.040323

 Total Charge           Charge          ....    0
 Multiplicity           Mult            ....    1
 Number of Electrons    NEL             ....   18
 Basis Dimension        Dim             ....   36

ORBITAL ENERGIES
----------------

  NO   OCC          E(Eh)            E(eV)
   0   2.0000     -18.886640      -513.9316
   1   2.0000     -10.610457      -288.7252
   2   2.0000      -1.036540       -28.2057
   3   2.0000      -0.768198       -20.9037
   4   2.0000      -0.755451       -20.5569
   5   2.0000      -0.721843       -19.6423
   6   2.0000      -0.216607        -5.8942
   7   2.0000      -0.060141        -1.6365
   8   2.0000      -0.060129        -1.6362
   9   0.0000      -0.253839        -6.9073
  10   0.0000       0.059331         1.6145
  11   0.0000       0.102965         2.8018
  12   0.0000       0.152746         4.1564
  13   0.0000       0.413066        11.2401

MULLIKEN ATOMIC CHARGES
-----------------------
   0 C :   -0.102635
   1 O :   -1.226038
   2 H :    0.331444
   3 H :    0.331419
   4 H :    0.417962
   5 H :    0.247848
Sum of atomic charges:   -0.0000000

LOEWDIN ATOMIC CHARGES
----------------------
   0 C :    0.255923
   1 O :   -1.175717
   2 H :    0.227818
   3 H :    0.227746
   4 H :    0.271617
   5 H :    0.192615

  Mayer bond orders larger than 0.1
B(  0-C ,  2-H ) :   0.8689 B(  0-C ,  3-H ) :   0.8689 B(  0-C ,  4-H ) :   0.7844
B(  1-O ,  5-H ) :   0.8834

Dispersion correction           -0.000237810
FINAL SINGLE POINT ENERGY      -115.291699242706

DIPOLE MOMENT
-------------
                                X             Y             Z
Electronic contribution:     -3.73622       0.05416       0.07970
Nuclear contribution   :     -3.80091       0.07288       0.10085
                        -----------------------------------------
Total Dipole Moment    :     -7.53713       0.12704       0.18055
                        -----------------------------------------
Magnitude (a.u.)       :      7.54036
Magnitude (Debye)      :     19.16607

                             ****ORCA TERMINATED NORMALLY****
TOTAL RUN TIME: 0 days 0 hours 0 minutes 11 seconds 950 msec
