                         Program Version 4.0.0.2 - RELEASE -
|  1> ! WB97X-D3 6-31G(d) VerySlowConv
|  2> ! KDIIS NOSOSCF
|  3> %base "Scan_4"
|  4>
|  5> %scf
|  6> maxiter 999
|  7> end
|  8>
|  9> * xyz 0 1
| 10> C         -3.875053138193    2.345493065938    0.037230214831
| 11> O         -2.735428689600    2.246225378476   -0.078260697566
| 12> H         -4.341017422139    3.363266740958   -0.153618031182
| 13> H         -4.334572261392    2.055273449470    1.034237621454
| 14> H         -4.405704499545    1.687822634517   -0.684076601538
| 15> H         -2.195333989131    2.793548730641    0.521487494002
| 16> **                         ****END OF INPUT****

CARTESIAN COORDINATES (ANGSTROEM)
---------------------------------
  C     -3.875053    2.345493    0.037230
  O     -2.735429    2.246225   -0.078261
  H     -4.341017    3.363267   -0.153618
  H     -4.334572    2.055273    1.034238
  H     -4.405704    1.687823   -0.684077
  H     -2.195334    2.793549    0.521487

 Total Charge           Charge          ....    0
 Multiplicity           Mult            ....    1
 Number of Electrons    NEL             ....   18
 Basis Dimension        Dim             ....   36

ORBITAL ENERGIES
----------------

  NO   OCC          E(Eh)            E(eV)
   0   2.0000     -19.254206      -523.9336
   1   2.0000     -10.307559      -280.4829
   2   2.0000      -1.243543       -33.8385
   3   2.0000      -0.793590       -21.5947
   4   2.0000      -0.658383       -17.9155
   5   2.0000      -0.576341       -15.6830
   6   2.0000      -0.572720       -15.5845
   7   2.0000      -0.387470       -10.5436
   8   2.0000      -0.340065        -9.2536
   9   0.0000       0.164173         4.4674
  10   0.0000       0.227672         6.1953
  11   0.0000       0.274417         7.4673
  12   0.0000       0.285417         7.7666
  13   0.0000       0.368258        10.0208

MULLIKEN ATOMIC CHARGES
-----------------------
   0 C :   -0.257448
   1 O :   -0.464375
   2 H :    0.078016
   3 H :    0.078202
   4 H :    0.140143
   5 H :    0.425462
Sum of atomic charges:   -0.0000000

LOEWDIN ATOMIC CHARGES
----------------------
   0 C :   -0.300425
   1 O :   -0.256524
   2 H :    0.057539
   3 H :    0.057393
   4 H :    0.107737
   5 H :    0.334280

  Mayer bond orders larger than 0.1
B(  0-C ,  1-O ) :   1.1224 B(  0-C ,  2-H ) :   0.9313 B(  0-C ,  3-H ) :   0.9311
B(  0-C ,  4-H ) :   0.9342 B(  1-O ,  5-H ) :   0.7669

Dispersion correction           -0.000191712
FINAL SINGLE POINT ENERGY      -115.604510632334

DIPOLE MOMENT
-------------
                                X             Y             Z
Electronic contribution:      2.20748      -0.25658      -0.29544
Nuclear contribution   :     -1.94370       0.60980       0.68202
                        -----------------------------------------
Total Dipole Moment    :      0.26378       0.35322       0.38658
                        -----------------------------------------
Magnitude (a.u.)       :      0.58634
Magnitude (Debye)      :      1.49035

                             ****ORCA TERMINATED NORMALLY****
TOTAL RUN TIME: 0 days 0 hours 0 minutes 4 seconds 821 msec
