                         Program Version 4.0.0.2 - RELEASE -
|  1> ! WB97X-D3 6-31G(d) VerySlowConv
|  2> ! KDIIS NOSOSCF
|  3> %base "Scan_40"
|  4>
|  5> %scf
|  6> maxiter 999
|  7> end
|  8>
|  9> * xyz 0 1
| 10> C         -5.302947556255    2.439356492666    0.148341971843
| 11> O         -0.817592968773    2.368082034516    0.045513394014
| 12> H         -5.841023085632    3.137051043116   -0.459359725368
| 13> H         -5.834274866674    1.764602211421    0.787092492656
| 14> H         -4.231593074785    2.416343229782    0.117201804786
| 15> H          0.140321552119    2.366194988502    0.038210062070
| 16> **                         ****END OF INPUT****

CARTESIAN COORDINATES (ANGSTROEM)
---------------------------------
  C     -5.302948    2.439356    0.148342
  O     -0.817593    2.368082    0.045513
  H     -5.841023    3.137051   -0.459360
  H     -5.834275    1.764602    0.787092
  H     -4.231593    2.416343    0.117202
  H      0.140322    2.366195    0.038210

 Total Charge           Charge          ....    0
 Multiplicity           Mult            ....    1
 Number of Electrons    NEL             ....   18
 Basis Dimension        Dim             ....   36

ORBITAL ENERGIES
----------------

  NO   OCC          E(Eh)            E(eV)
   0   2.0000     -18.882152      -513.8095
   1   2.0000     -10.614325      -288.8305
   2   2.0000      -1.040301       -28.3080
   3   2.0000      -0.771682       -20.9985
   4   2.0000      -0.759721       -20.6731
   5   2.0000      -0.717650       -19.5283
   6   2.0000      -0.212039        -5.7699
   7   2.0000      -0.055955        -1.5226
   8   2.0000      -0.055954        -1.5226
   9   0.0000      -0.257438        -7.0052
  10   0.0000       0.056310         1.5323
  11   0.0000       0.100044         2.7223
  12   0.0000       0.146429         3.9845
  13   0.0000       0.415894        11.3170

MULLIKEN ATOMIC CHARGES
-----------------------
   0 C :   -0.101639
   1 O :   -1.227261
   2 H :    0.333207
   3 H :    0.333182
   4 H :    0.418632
   5 H :    0.243879
Sum of atomic charges:   -0.0000000

LOEWDIN ATOMIC CHARGES
----------------------
   0 C :    0.257502
   1 O :   -1.176559
   2 H :    0.228771
   3 H :    0.228701
   4 H :    0.271963
   5 H :    0.189623

  Mayer bond orders larger than 0.1
B(  0-C ,  2-H ) :   0.8682 B(  0-C ,  3-H ) :   0.8681 B(  0-C ,  4-H ) :   0.7908
B(  1-O ,  5-H ) :   0.8864

Dispersion correction           -0.000212213
FINAL SINGLE POINT ENERGY      -115.287743642706

DIPOLE MOMENT
-------------
                                X             Y             Z
Electronic contribution:     -3.86312       0.05611       0.08253
Nuclear contribution   :     -3.90813       0.07300       0.10157
                        -----------------------------------------
Total Dipole Moment    :     -7.77125       0.12910       0.18410
                        -----------------------------------------
Magnitude (a.u.)       :      7.77450
Magnitude (Debye)      :     19.76121

                             ****ORCA TERMINATED NORMALLY****
TOTAL RUN TIME: 0 days 0 hours 0 minutes 8 seconds 470 msec
