                         Program Version 4.0.0.2 - RELEASE -
|  1> ! WB97X-D3 6-31G(d) VerySlowConv
|  2> ! KDIIS NOSOSCF
|  3> %base "Scan_41"
|  4>
|  5> %scf
|  6> maxiter 999
|  7> end
|  8>
|  9> * xyz 0 1
| 10> C         -5.337055471143    2.439888300101    0.149112670431
| 11> O         -0.749340320941    2.367501328213    0.044502670713
| 12> H         -5.875114970821    3.137286584575   -0.458885051870
| 13> H         -5.868365860630    1.764867423618    0.787540176117
| 14> H         -4.265861817121    2.417378074677    0.118526408194
| 15> H          0.208628440656    2.364708288817    0.036203126416
| 16> **                         ****END OF INPUT****

CARTESIAN COORDINATES (ANGSTROEM)
---------------------------------
  C     -5.337055    2.439888    0.149113
  O     -0.749340    2.367501    0.044503
  H     -5.875115    3.137287   -0.458885
  H     -5.868366    1.764867    0.787540
  H     -4.265862    2.417378    0.118526
  H      0.208628    2.364708    0.036203

 Total Charge           Charge          ....    0
 Multiplicity           Mult            ....    1
 Number of Electrons    NEL             ....   18
 Basis Dimension        Dim             ....   36

ORBITAL ENERGIES
----------------

  NO   OCC          E(Eh)            E(eV)
   0   2.0000     -18.878008      -513.6967
   1   2.0000     -10.617931      -288.9286
   2   2.0000      -1.043770       -28.4024
   3   2.0000      -0.774893       -21.0859
   4   2.0000      -0.763639       -20.7797
   5   2.0000      -0.713854       -19.4249
   6   2.0000      -0.207919        -5.6578
   7   2.0000      -0.052152        -1.4191
   8   2.0000      -0.052151        -1.4191
   9   0.0000      -0.260771        -7.0959
  10   0.0000       0.053510         1.4561
  11   0.0000       0.097340         2.6488
  12   0.0000       0.140994         3.8366
  13   0.0000       0.418492        11.3878

MULLIKEN ATOMIC CHARGES
-----------------------
   0 C :   -0.100884
   1 O :   -1.227829
   2 H :    0.334668
   3 H :    0.334644
   4 H :    0.418906
   5 H :    0.240495
Sum of atomic charges:   -0.0000000

LOEWDIN ATOMIC CHARGES
----------------------
   0 C :    0.258779
   1 O :   -1.176986
   2 H :    0.229551
   3 H :    0.229483
   4 H :    0.272057
   5 H :    0.187116

  Mayer bond orders larger than 0.1
B(  0-C ,  2-H ) :   0.8674 B(  0-C ,  3-H ) :   0.8674 B(  0-C ,  4-H ) :   0.7959
B(  1-O ,  5-H ) :   0.8888

Dispersion correction           -0.000188417
FINAL SINGLE POINT ENERGY      -115.284071606423

DIPOLE MOMENT
-------------
                                X             Y             Z
Electronic contribution:     -3.98270       0.05795       0.08521
Nuclear contribution   :     -4.01533       0.07337       0.10257
                        -----------------------------------------
Total Dipole Moment    :     -7.99804       0.13132       0.18778
                        -----------------------------------------
Magnitude (a.u.)       :      8.00132
Magnitude (Debye)      :     20.33774

                             ****ORCA TERMINATED NORMALLY****
TOTAL RUN TIME: 0 days 0 hours 0 minutes 7 seconds 410 msec
