                         Program Version 4.0.0.2 - RELEASE -
|  1> ! WB97X-D3 6-31G(d) VerySlowConv
|  2> ! KDIIS NOSOSCF
|  3> %base "Scan_42"
|  4>
|  5> %scf
|  6> maxiter 999
|  7> end
|  8>
|  9> * xyz 0 1
| 10> C         -5.371159986396    2.440415419465    0.149878202860
| 11> O         -0.681097779611    2.366848901111    0.043413110033
| 12> H         -5.909204900756    3.137553104612   -0.458376008274
| 13> H         -5.902455029115    1.765163928484    0.788021950276
| 14> H         -4.300111801919    2.418349100653    0.119780759604
| 15> H          0.276919497795    2.363299545677    0.034281985501
| 16> **                         ****END OF INPUT****

CARTESIAN COORDINATES (ANGSTROEM)
---------------------------------
  C     -5.371160    2.440415    0.149878
  O     -0.681098    2.366849    0.043413
  H     -5.909205    3.137553   -0.458376
  H     -5.902455    1.765164    0.788022
  H     -4.300112    2.418349    0.119781
  H      0.276919    2.363300    0.034282

 Total Charge           Charge          ....    0
 Multiplicity           Mult            ....    1
 Number of Electrons    NEL             ....   18
 Basis Dimension        Dim             ....   36

ORBITAL ENERGIES
----------------

  NO   OCC          E(Eh)            E(eV)
   0   2.0000     -18.874320      -513.5964
   1   2.0000     -10.621346      -289.0215
   2   2.0000      -1.047051       -28.4917
   3   2.0000      -0.777935       -21.1687
   4   2.0000      -0.767334       -20.8802
   5   2.0000      -0.710397       -19.3309
   6   2.0000      -0.204167        -5.5557
   7   2.0000      -0.048686        -1.3248
   8   2.0000      -0.048684        -1.3248
   9   0.0000      -0.263926        -7.1818
  10   0.0000       0.050813         1.3827
  11   0.0000       0.094772         2.5789
  12   0.0000       0.135686         3.6922
  13   0.0000       0.420945        11.4545

MULLIKEN ATOMIC CHARGES
-----------------------
   0 C :   -0.099619
   1 O :   -1.227828
   2 H :    0.335946
   3 H :    0.335923
   4 H :    0.418333
   5 H :    0.237244
Sum of atomic charges:   -0.0000000

LOEWDIN ATOMIC CHARGES
----------------------
   0 C :    0.260080
   1 O :   -1.177130
   2 H :    0.230243
   3 H :    0.230178
   4 H :    0.271841
   5 H :    0.184788

  Mayer bond orders larger than 0.1
B(  0-C ,  2-H ) :   0.8668 B(  0-C ,  3-H ) :   0.8668 B(  0-C ,  4-H ) :   0.8009
B(  1-O ,  5-H ) :   0.8909

Dispersion correction           -0.000166813
FINAL SINGLE POINT ENERGY      -115.280662121360

DIPOLE MOMENT
-------------
                                X             Y             Z
Electronic contribution:     -4.09956       0.05973       0.08782
Nuclear contribution   :     -4.12252       0.07395       0.10378
                        -----------------------------------------
Total Dipole Moment    :     -8.22207       0.13368       0.19161
                        -----------------------------------------
Magnitude (a.u.)       :      8.22539
Magnitude (Debye)      :     20.90729

                             ****ORCA TERMINATED NORMALLY****
TOTAL RUN TIME: 0 days 0 hours 0 minutes 6 seconds 660 msec
