                         Program Version 4.0.0.2 - RELEASE -
|  1> ! WB97X-D3 6-31G(d) VerySlowConv
|  2> ! KDIIS NOSOSCF
|  3> %base "Scan_43"
|  4>
|  5> %scf
|  6> maxiter 999
|  7> end
|  8>
|  9> * xyz 0 1
| 10> C         -5.405261645764    2.440938230610    0.150638983677
| 11> O         -0.612864195257    2.366138570464    0.042259949567
| 12> H         -5.943292929934    3.137846390480   -0.457837638822
| 13> H         -5.936542392827    1.765487099322    0.788533145087
| 14> H         -4.334345452112    2.419265062583    0.120974478638
| 15> H          0.345196615893    2.361954646543    0.032431081853
| 16> **                         ****END OF INPUT****

CARTESIAN COORDINATES (ANGSTROEM)
---------------------------------
  C     -5.405262    2.440938    0.150639
  O     -0.612864    2.366139    0.042260
  H     -5.943293    3.137846   -0.457838
  H     -5.936542    1.765487    0.788533
  H     -4.334345    2.419265    0.120974
  H      0.345197    2.361955    0.032431

 Total Charge           Charge          ....    0
 Multiplicity           Mult            ....    1
 Number of Electrons    NEL             ....   18
 Basis Dimension        Dim             ....   36

ORBITAL ENERGIES
----------------

  NO   OCC          E(Eh)            E(eV)
   0   2.0000     -18.871029      -513.5068
   1   2.0000     -10.624423      -289.1052
   2   2.0000      -1.050064       -28.5737
   3   2.0000      -0.780732       -21.2448
   4   2.0000      -0.770723       -20.9724
   5   2.0000      -0.707294       -19.2465
   6   2.0000      -0.200793        -5.4639
   7   2.0000      -0.045562        -1.2398
   8   2.0000      -0.045561        -1.2398
   9   0.0000      -0.266826        -7.2607
  10   0.0000       0.048288         1.3140
  11   0.0000       0.092392         2.5141
  12   0.0000       0.130702         3.5566
  13   0.0000       0.423196        11.5157

MULLIKEN ATOMIC CHARGES
-----------------------
   0 C :   -0.098606
   1 O :   -1.227394
   2 H :    0.337140
   3 H :    0.337118
   4 H :    0.417341
   5 H :    0.234401
Sum of atomic charges:   -0.0000000

LOEWDIN ATOMIC CHARGES
----------------------
   0 C :    0.261071
   1 O :   -1.177014
   2 H :    0.230889
   3 H :    0.230826
   4 H :    0.271417
   5 H :    0.182812

  Mayer bond orders larger than 0.1
B(  0-C ,  2-H ) :   0.8662 B(  0-C ,  3-H ) :   0.8662 B(  0-C ,  4-H ) :   0.8050
B(  1-O ,  5-H ) :   0.8926

Dispersion correction           -0.000147592
FINAL SINGLE POINT ENERGY      -115.277498723071

DIPOLE MOMENT
-------------
                                X             Y             Z
Electronic contribution:     -4.21130       0.06143       0.09031
Nuclear contribution   :     -4.22968       0.07469       0.10518
                        -----------------------------------------
Total Dipole Moment    :     -8.44099       0.13612       0.19549
                        -----------------------------------------
Magnitude (a.u.)       :      8.44435
Magnitude (Debye)      :     21.46382

                             ****ORCA TERMINATED NORMALLY****
TOTAL RUN TIME: 0 days 0 hours 0 minutes 24 seconds 157 msec
