                         Program Version 4.0.0.2 - RELEASE -
|  1> ! WB97X-D3 6-31G(d) VerySlowConv
|  2> ! KDIIS NOSOSCF
|  3> %base "Scan_44"
|  4>
|  5> %scf
|  6> maxiter 999
|  7> end
|  8>
|  9> * xyz 0 1
| 10> C         -5.439360866503    2.441457088150    0.151395406653
| 11> O         -0.544638622057    2.365381039152    0.041054937995
| 12> H         -5.977379089170    3.138162870841   -0.457274160865
| 13> H         -5.970627974379    1.765833078642    0.789069802757
| 14> H         -4.368564678282    2.420133465859    0.122115836372
| 15> H          0.413461230390    2.360662457358    0.030638177088
| 16> **                         ****END OF INPUT****

CARTESIAN COORDINATES (ANGSTROEM)
---------------------------------
  C     -5.439361    2.441457    0.151395
  O     -0.544639    2.365381    0.041055
  H     -5.977379    3.138163   -0.457274
  H     -5.970628    1.765833    0.789070
  H     -4.368565    2.420133    0.122116
  H      0.413461    2.360662    0.030638

 Total Charge           Charge          ....    0
 Multiplicity           Mult            ....    1
 Number of Electrons    NEL             ....   18
 Basis Dimension        Dim             ....   36

ORBITAL ENERGIES
----------------

  NO   OCC          E(Eh)            E(eV)
   0   2.0000     -18.867919      -513.4222
   1   2.0000     -10.627355      -289.1850
   2   2.0000      -1.052908       -28.6511
   3   2.0000      -0.783375       -21.3167
   4   2.0000      -0.773904       -21.0590
   5   2.0000      -0.704379       -19.1671
   6   2.0000      -0.197664        -5.3787
   7   2.0000      -0.042625        -1.1599
   8   2.0000      -0.042621        -1.1598
   9   0.0000      -0.269571        -7.3354
  10   0.0000       0.045953         1.2505
  11   0.0000       0.090140         2.4528
  12   0.0000       0.126798         3.4503
  13   0.0000       0.425307        11.5732

MULLIKEN ATOMIC CHARGES
-----------------------
   0 C :   -0.098139
   1 O :   -1.226945
   2 H :    0.338264
   3 H :    0.338242
   4 H :    0.416628
   5 H :    0.231950
Sum of atomic charges:   -0.0000000

LOEWDIN ATOMIC CHARGES
----------------------
   0 C :    0.261864
   1 O :   -1.176940
   2 H :    0.231482
   3 H :    0.231420
   4 H :    0.271042
   5 H :    0.181132

  Mayer bond orders larger than 0.1
B(  0-C ,  2-H ) :   0.8656 B(  0-C ,  3-H ) :   0.8656 B(  0-C ,  4-H ) :   0.8084
B(  1-O ,  5-H ) :   0.8940

Dispersion correction           -0.000130748
FINAL SINGLE POINT ENERGY      -115.274556874055

DIPOLE MOMENT
-------------
                                X             Y             Z
Electronic contribution:     -4.32016       0.06307       0.09270
Nuclear contribution   :     -4.33683       0.07556       0.10673
                        -----------------------------------------
Total Dipole Moment    :     -8.65700       0.13863       0.19943
                        -----------------------------------------
Magnitude (a.u.)       :      8.66040
Magnitude (Debye)      :     22.01299

                             ****ORCA TERMINATED NORMALLY****
TOTAL RUN TIME: 0 days 0 hours 0 minutes 23 seconds 992 msec
