                         Program Version 4.0.0.2 - RELEASE -
|  1> ! WB97X-D3 6-31G(d) VerySlowConv
|  2> ! KDIIS NOSOSCF
|  3> %base "Scan_45"
|  4>
|  5> %scf
|  6> maxiter 999
|  7> end
|  8>
|  9> * xyz 0 1
| 10> C         -5.473457998042    2.441972253070    0.152147759848
| 11> O         -0.476420328176    2.364584596221    0.039807177397
| 12> H         -6.011463328873    3.138499550038   -0.456689114716
| 13> H         -6.004711711321    1.766198625474    0.789628605354
| 14> H         -4.402770992556    2.420960796092    0.123211971312
| 15> H          0.481714358967    2.359414179107    0.028893600806
| 16> **                         ****END OF INPUT****

CARTESIAN COORDINATES (ANGSTROEM)
---------------------------------
  C     -5.473458    2.441972    0.152148
  O     -0.476420    2.364585    0.039807
  H     -6.011463    3.138500   -0.456689
  H     -6.004712    1.766199    0.789629
  H     -4.402771    2.420961    0.123212
  H      0.481714    2.359414    0.028894

 Total Charge           Charge          ....    0
 Multiplicity           Mult            ....    1
 Number of Electrons    NEL             ....   18
 Basis Dimension        Dim             ....   36

ORBITAL ENERGIES
----------------

  NO   OCC          E(Eh)            E(eV)
   0   2.0000     -18.865081      -513.3450
   1   2.0000     -10.630150      -289.2611
   2   2.0000      -1.055613       -28.7247
   3   2.0000      -0.785896       -21.3853
   4   2.0000      -0.776912       -21.1408
   5   2.0000      -0.701698       -19.0942
   6   2.0000      -0.194789        -5.3005
   7   2.0000      -0.039915        -1.0861
   8   2.0000      -0.039910        -1.0860
   9   0.0000      -0.272184        -7.4065
  10   0.0000       0.043684         1.1887
  11   0.0000       0.087989         2.3943
  12   0.0000       0.122812         3.3419
  13   0.0000       0.426875        11.6159

MULLIKEN ATOMIC CHARGES
-----------------------
   0 C :   -0.097228
   1 O :   -1.226192
   2 H :    0.339281
   3 H :    0.339260
   4 H :    0.415290
   5 H :    0.229590
Sum of atomic charges:   -0.0000000

LOEWDIN ATOMIC CHARGES
----------------------
   0 C :    0.262714
   1 O :   -1.176694
   2 H :    0.232026
   3 H :    0.231965
   4 H :    0.270421
   5 H :    0.179567

  Mayer bond orders larger than 0.1
B(  0-C ,  2-H ) :   0.8651 B(  0-C ,  3-H ) :   0.8651 B(  0-C ,  4-H ) :   0.8117
B(  1-O ,  5-H ) :   0.8953

Dispersion correction           -0.000116133
FINAL SINGLE POINT ENERGY      -115.271814631184

DIPOLE MOMENT
-------------
                                X             Y             Z
Electronic contribution:     -4.42718       0.06467       0.09506
Nuclear contribution   :     -4.44397       0.07655       0.10840
                        -----------------------------------------
Total Dipole Moment    :     -8.87114       0.14123       0.20346
                        -----------------------------------------
Magnitude (a.u.)       :      8.87460
Magnitude (Debye)      :     22.55744

                             ****ORCA TERMINATED NORMALLY****
TOTAL RUN TIME: 0 days 0 hours 0 minutes 6 seconds 706 msec
