                         Program Version 4.0.0.2 - RELEASE -
|  1> ! WB97X-D3 6-31G(d) VerySlowConv
|  2> ! KDIIS NOSOSCF
|  3> %base "Scan_5"
|  4>
|  5> %scf
|  6> maxiter 999
|  7> end
|  8>
|  9> * xyz 0 1
| 10> C         -3.890105625755    2.346194037749    0.038083754942
| 11> O         -2.719796704333    2.244169567914   -0.080609245366
| 12> H         -4.340341079114    3.363045798259   -0.153657371895
| 13> H         -4.333896937185    2.055259161295    1.034010606716
| 14> H         -4.409083154240    1.687201162905   -0.684742595923
| 15> H         -2.193886499374    2.795760271879    0.523914851525
| 16> **                         ****END OF INPUT****

CARTESIAN COORDINATES (ANGSTROEM)
---------------------------------
  C     -3.890106    2.346194    0.038084
  O     -2.719797    2.244170   -0.080609
  H     -4.340341    3.363046   -0.153657
  H     -4.333897    2.055259    1.034011
  H     -4.409083    1.687201   -0.684743
  H     -2.193886    2.795760    0.523915

 Total Charge           Charge          ....    0
 Multiplicity           Mult            ....    1
 Number of Electrons    NEL             ....   18
 Basis Dimension        Dim             ....   36

ORBITAL ENERGIES
----------------

  NO   OCC          E(Eh)            E(eV)
   0   2.0000     -19.250951      -523.8450
   1   2.0000     -10.307055      -280.4692
   2   2.0000      -1.225813       -33.3561
   3   2.0000      -0.791100       -21.5269
   4   2.0000      -0.653146       -17.7730
   5   2.0000      -0.567984       -15.4556
   6   2.0000      -0.563899       -15.3445
   7   2.0000      -0.393072       -10.6960
   8   2.0000      -0.343994        -9.3606
   9   0.0000       0.167783         4.5656
  10   0.0000       0.228700         6.2232
  11   0.0000       0.272882         7.4255
  12   0.0000       0.283161         7.7052
  13   0.0000       0.365155         9.9364

MULLIKEN ATOMIC CHARGES
-----------------------
   0 C :   -0.249851
   1 O :   -0.496633
   2 H :    0.088512
   3 H :    0.088707
   4 H :    0.145942
   5 H :    0.423323
Sum of atomic charges:   -0.0000000

LOEWDIN ATOMIC CHARGES
----------------------
   0 C :   -0.291036
   1 O :   -0.283716
   2 H :    0.065860
   3 H :    0.065692
   4 H :    0.111767
   5 H :    0.331434

  Mayer bond orders larger than 0.1
B(  0-C ,  1-O ) :   1.0922 B(  0-C ,  2-H ) :   0.9335 B(  0-C ,  3-H ) :   0.9334
B(  0-C ,  4-H ) :   0.9381 B(  1-O ,  5-H ) :   0.7710

Dispersion correction           -0.000195298
FINAL SINGLE POINT ENERGY      -115.624904369523

DIPOLE MOMENT
-------------
                                X             Y             Z
Electronic contribution:      2.13357      -0.24957      -0.28738
Nuclear contribution   :     -1.95209       0.61376       0.68643
                        -----------------------------------------
Total Dipole Moment    :      0.18148       0.36419       0.39904
                        -----------------------------------------
Magnitude (a.u.)       :      0.56992
Magnitude (Debye)      :      1.44861

                             ****ORCA TERMINATED NORMALLY****
TOTAL RUN TIME: 0 days 0 hours 0 minutes 4 seconds 544 msec
