                         Program Version 4.0.0.2 - RELEASE -
|  1> ! WB97X-D3 6-31G(d) VerySlowConv
|  2> ! KDIIS NOSOSCF
|  3> %base "Scan_6"
|  4>
|  5> %scf
|  6> maxiter 999
|  7> end
|  8>
|  9> * xyz 0 1
| 10> C         -3.907131631759    2.346892724053    0.038945486234
| 11> O         -2.701953916180    2.241885685500   -0.083220928216
| 12> H         -4.339679706234    3.363311140704   -0.153998534706
| 13> H         -4.333232475640    2.054897670519    1.034238703149
| 14> H         -4.413143408184    1.686308896731   -0.685703073974
| 15> H         -2.191968862004    2.798333882494    0.526738347513
| 16> **                         ****END OF INPUT****

CARTESIAN COORDINATES (ANGSTROEM)
---------------------------------
  C     -3.907132    2.346893    0.038945
  O     -2.701954    2.241886   -0.083221
  H     -4.339680    3.363311   -0.153999
  H     -4.333232    2.054898    1.034239
  H     -4.413143    1.686309   -0.685703
  H     -2.191969    2.798334    0.526738

 Total Charge           Charge          ....    0
 Multiplicity           Mult            ....    1
 Number of Electrons    NEL             ....   18
 Basis Dimension        Dim             ....   36

ORBITAL ENERGIES
----------------

  NO   OCC          E(Eh)            E(eV)
   0   2.0000     -19.247804      -523.7594
   1   2.0000     -10.307093      -280.4702
   2   2.0000      -1.207002       -32.8442
   3   2.0000      -0.789296       -21.4778
   4   2.0000      -0.646433       -17.5903
   5   2.0000      -0.559910       -15.2359
   6   2.0000      -0.554806       -15.0970
   7   2.0000      -0.399040       -10.8584
   8   2.0000      -0.347864        -9.4659
   9   0.0000       0.171057         4.6547
  10   0.0000       0.229814         6.2536
  11   0.0000       0.271270         7.3816
  12   0.0000       0.280839         7.6420
  13   0.0000       0.360286         9.8039

MULLIKEN ATOMIC CHARGES
-----------------------
   0 C :   -0.242615
   1 O :   -0.529643
   2 H :    0.099504
   3 H :    0.099700
   4 H :    0.152031
   5 H :    0.421022
Sum of atomic charges:    0.0000000

LOEWDIN ATOMIC CHARGES
----------------------
   0 C :   -0.280718
   1 O :   -0.312389
   2 H :    0.074472
   3 H :    0.074277
   4 H :    0.115978
   5 H :    0.328379

  Mayer bond orders larger than 0.1
B(  0-C ,  1-O ) :   1.0618 B(  0-C ,  2-H ) :   0.9357 B(  0-C ,  3-H ) :   0.9356
B(  0-C ,  4-H ) :   0.9417 B(  1-O ,  5-H ) :   0.7750

Dispersion correction           -0.000199844
FINAL SINGLE POINT ENERGY      -115.642826091442

DIPOLE MOMENT
-------------
                                X             Y             Z
Electronic contribution:      2.05665      -0.24309      -0.27990
Nuclear contribution   :     -1.96202       0.61833       0.69152
                        -----------------------------------------
Total Dipole Moment    :      0.09463       0.37525       0.41161
                        -----------------------------------------
Magnitude (a.u.)       :      0.56497
Magnitude (Debye)      :      1.43604

                             ****ORCA TERMINATED NORMALLY****
TOTAL RUN TIME: 0 days 0 hours 0 minutes 4 seconds 515 msec
