                         Program Version 4.0.0.2 - RELEASE -
|  1> ! WB97X-D3 6-31G(d) VerySlowConv
|  2> ! KDIIS NOSOSCF
|  3> %base "Scan_7"
|  4>
|  5> %scf
|  6> maxiter 999
|  7> end
|  8>
|  9> * xyz 0 1
| 10> C         -3.926563701952    2.347567699623    0.039794162967
| 11> O         -2.681496152958    2.239396067244   -0.086073343976
| 12> H         -4.339065876767    3.364142465484   -0.154661700772
| 13> H         -4.332610919813    2.054161059991    1.034999459947
| 14> H         -4.417996428480    1.685063458355   -0.687048141694
| 15> H         -2.189376920029    2.801299249303    0.529989563528
| 16> **                         ****END OF INPUT****

CARTESIAN COORDINATES (ANGSTROEM)
---------------------------------
  C     -3.926564    2.347568    0.039794
  O     -2.681496    2.239396   -0.086073
  H     -4.339066    3.364142   -0.154662
  H     -4.332611    2.054161    1.034999
  H     -4.417996    1.685063   -0.687048
  H     -2.189377    2.801299    0.529990

 Total Charge           Charge          ....    0
 Multiplicity           Mult            ....    1
 Number of Electrons    NEL             ....   18
 Basis Dimension        Dim             ....   36

ORBITAL ENERGIES
----------------

  NO   OCC          E(Eh)            E(eV)
   0   2.0000     -19.244779      -523.6771
   1   2.0000     -10.307704      -280.4869
   2   2.0000      -1.187208       -32.3056
   3   2.0000      -0.788337       -21.4517
   4   2.0000      -0.638029       -17.3616
   5   2.0000      -0.552356       -15.0304
   6   2.0000      -0.545534       -14.8447
   7   2.0000      -0.405307       -11.0290
   8   2.0000      -0.351511        -9.5651
   9   0.0000       0.173851         4.7307
  10   0.0000       0.230977         6.2852
  11   0.0000       0.269599         7.3362
  12   0.0000       0.278469         7.5775
  13   0.0000       0.352710         9.5977

MULLIKEN ATOMIC CHARGES
-----------------------
   0 C :   -0.236339
   1 O :   -0.562743
   2 H :    0.110940
   3 H :    0.111129
   4 H :    0.158415
   5 H :    0.418598
Sum of atomic charges:   -0.0000000

LOEWDIN ATOMIC CHARGES
----------------------
   0 C :   -0.269525
   1 O :   -0.342390
   2 H :    0.083329
   3 H :    0.083103
   4 H :    0.120376
   5 H :    0.325107

  Mayer bond orders larger than 0.1
B(  0-C ,  1-O ) :   1.0320 B(  0-C ,  2-H ) :   0.9379 B(  0-C ,  3-H ) :   0.9377
B(  0-C ,  4-H ) :   0.9448 B(  1-O ,  5-H ) :   0.7787

Dispersion correction           -0.000205639
FINAL SINGLE POINT ENERGY      -115.657686554438

DIPOLE MOMENT
-------------
                                X             Y             Z
Electronic contribution:      1.97696      -0.23730      -0.27319
Nuclear contribution   :     -1.97360       0.62352       0.69729
                        -----------------------------------------
Total Dipole Moment    :      0.00336       0.38621       0.42409
                        -----------------------------------------
Magnitude (a.u.)       :      0.57361
Magnitude (Debye)      :      1.45799

                             ****ORCA TERMINATED NORMALLY****
TOTAL RUN TIME: 0 days 0 hours 0 minutes 16 seconds 53 msec
