                         Program Version 4.0.0.2 - RELEASE -
|  1> ! WB97X-D3 6-31G(d) VerySlowConv
|  2> ! KDIIS NOSOSCF
|  3> %base "Scan_8"
|  4>
|  5> %scf
|  6> maxiter 999
|  7> end
|  8>
|  9> * xyz 0 1
| 10> C         -3.948718576584    2.348174511387    0.040582556544
| 11> O         -2.657838668276    2.236692485049   -0.089178723927
| 12> H         -4.338678608945    3.365629180753   -0.155606744660
| 13> H         -4.332210998066    2.053079715696    1.036386602158
| 14> H         -4.423852161930    1.683350844203   -0.688902194353
| 15> H         -2.185810986199    2.804703262912    0.533718504238
| 16> **                         ****END OF INPUT****

CARTESIAN COORDINATES (ANGSTROEM)
---------------------------------
  C     -3.948719    2.348175    0.040583
  O     -2.657839    2.236692   -0.089179
  H     -4.338679    3.365629   -0.155607
  H     -4.332211    2.053080    1.036387
  H     -4.423852    1.683351   -0.688902
  H     -2.185811    2.804703    0.533719

 Total Charge           Charge          ....    0
 Multiplicity           Mult            ....    1
 Number of Electrons    NEL             ....   18
 Basis Dimension        Dim             ....   36

ORBITAL ENERGIES
----------------

  NO   OCC          E(Eh)            E(eV)
   0   2.0000     -19.241958      -523.6003
   1   2.0000     -10.309012      -280.5225
   2   2.0000      -1.166660       -31.7464
   3   2.0000      -0.788322       -21.4513
   4   2.0000      -0.627845       -17.0845
   5   2.0000      -0.545618       -14.8470
   6   2.0000      -0.536229       -14.5915
   7   2.0000      -0.411718       -11.2034
   8   2.0000      -0.354721        -9.6524
   9   0.0000       0.175956         4.7880
  10   0.0000       0.232012         6.3134
  11   0.0000       0.267859         7.2888
  12   0.0000       0.276047         7.5116
  13   0.0000       0.341218         9.2850

MULLIKEN ATOMIC CHARGES
-----------------------
   0 C :   -0.232032
   1 O :   -0.594716
   2 H :    0.122702
   3 H :    0.122873
   4 H :    0.165058
   5 H :    0.416115
Sum of atomic charges:   -0.0000000

LOEWDIN ATOMIC CHARGES
----------------------
   0 C :   -0.257683
   1 O :   -0.373253
   2 H :    0.092324
   3 H :    0.092064
   4 H :    0.124917
   5 H :    0.321632

  Mayer bond orders larger than 0.1
B(  0-C ,  1-O ) :   1.0039 B(  0-C ,  2-H ) :   0.9398 B(  0-C ,  3-H ) :   0.9396
B(  0-C ,  4-H ) :   0.9475 B(  1-O ,  5-H ) :   0.7819

Dispersion correction           -0.000213155
FINAL SINGLE POINT ENERGY      -115.668832419272

DIPOLE MOMENT
-------------
                                X             Y             Z
Electronic contribution:      1.89580      -0.23251      -0.26757
Nuclear contribution   :     -1.98769       0.62942       0.70387
                        -----------------------------------------
Total Dipole Moment    :     -0.09189       0.39692       0.43630
                        -----------------------------------------
Magnitude (a.u.)       :      0.59694
Magnitude (Debye)      :      1.51731

                             ****ORCA TERMINATED NORMALLY****
TOTAL RUN TIME: 0 days 0 hours 0 minutes 17 seconds 162 msec
