                         Program Version 4.0.0.2 - RELEASE -
|  1> ! WB97X-D3 6-31G(d) VerySlowConv
|  2> ! KDIIS NOSOSCF
|  3> %base "Scan_9"
|  4>
|  5> %scf
|  6> maxiter 999
|  7> end
|  8>
|  9> * xyz 0 1
| 10> C         -3.973875740309    2.348702507634    0.041300452591
| 11> O         -2.630413668296    2.233848630374   -0.092459006560
| 12> H         -4.338819330347    3.367815848549   -0.156886230144
| 13> H         -4.332333630228    2.051595410854    1.038440915216
| 14> H         -4.430932228839    1.681130202799   -0.691309011588
| 15> H         -2.180735401982    2.808537399789    0.537912880485
| 16> **                         ****END OF INPUT****

CARTESIAN COORDINATES (ANGSTROEM)
---------------------------------
  C     -3.973876    2.348703    0.041300
  O     -2.630414    2.233849   -0.092459
  H     -4.338819    3.367816   -0.156886
  H     -4.332334    2.051595    1.038441
  H     -4.430932    1.681130   -0.691309
  H     -2.180735    2.808537    0.537913

 Total Charge           Charge          ....    0
 Multiplicity           Mult            ....    1
 Number of Electrons    NEL             ....   18
 Basis Dimension        Dim             ....   36

ORBITAL ENERGIES
----------------

  NO   OCC          E(Eh)            E(eV)
   0   2.0000     -19.239338      -523.5290
   1   2.0000     -10.311203      -280.5821
   2   2.0000      -1.145735       -31.1770
   3   2.0000      -0.789308       -21.4782
   4   2.0000      -0.615978       -16.7616
   5   2.0000      -0.540059       -14.6957
   6   2.0000      -0.527134       -14.3440
   7   2.0000      -0.417909       -11.3719
   8   2.0000      -0.357220        -9.7205
   9   0.0000       0.177108         4.8194
  10   0.0000       0.232492         6.3264
  11   0.0000       0.266027         7.2390
  12   0.0000       0.273584         7.4446
  13   0.0000       0.324773         8.8375

MULLIKEN ATOMIC CHARGES
-----------------------
   0 C :   -0.230969
   1 O :   -0.623966
   2 H :    0.134610
   3 H :    0.134755
   4 H :    0.171917
   5 H :    0.413653
Sum of atomic charges:   -0.0000000

LOEWDIN ATOMIC CHARGES
----------------------
   0 C :   -0.245639
   1 O :   -0.404221
   2 H :    0.101311
   3 H :    0.101021
   4 H :    0.129551
   5 H :    0.317977

  Mayer bond orders larger than 0.1
B(  0-C ,  1-O ) :   0.9790 B(  0-C ,  2-H ) :   0.9413 B(  0-C ,  3-H ) :   0.9411
B(  0-C ,  4-H ) :   0.9493 B(  1-O ,  5-H ) :   0.7846

Dispersion correction           -0.000223048
FINAL SINGLE POINT ENERGY      -115.675639459153

DIPOLE MOMENT
-------------
                                X             Y             Z
Electronic contribution:      1.81482      -0.22879      -0.26313
Nuclear contribution   :     -2.00521       0.63588       0.71108
                        -----------------------------------------
Total Dipole Moment    :     -0.19040       0.40709       0.44795
                        -----------------------------------------
Magnitude (a.u.)       :      0.63453
Magnitude (Debye)      :      1.61285

                             ****ORCA TERMINATED NORMALLY****
TOTAL RUN TIME: 0 days 0 hours 0 minutes 4 seconds 384 msec
