                         Program Version 4.0.0.2 - RELEASE -
|  1> ! WB97X-D3 6-31G(d) VerySlowConv
|  2> ! KDIIS NOSOSCF
|  3> %base "Scan_1"
|  4>
|  5> %scf
|  6> maxiter 999
|  7> end
|  8>
|  9> * xyz 0 1
| 10> C          1.251474627717   -2.828873757965    0.000000000000
| 11> H          2.370600817183   -2.914549642430   -0.000000000000
| 12> C          0.765040171152   -1.814615556645    0.000000000000
| 13> H          1.398800698525   -0.888261748074    0.000000000000
| 14> C         -0.356550274512   -1.728751054253   -0.000000000000
| 15> H         -0.841915929241   -0.716721434280   -0.000000000000
| 16> C         -0.991706277372   -2.657144571578   -0.000000000000
| 17> H         -2.110832463772   -2.571468687014    0.000000000000
| 18> C         -0.505271831042   -3.671402767758   -0.000000000000
| 19> H         -1.139032367291   -4.597756568225   -0.000000000000
| 20> C          0.616318597804   -3.757267290257    0.000000000000
| 21> H          1.101684230849   -4.769296921522    0.000000000000
| 22> **                         ****END OF INPUT****

CARTESIAN COORDINATES (ANGSTROEM)
---------------------------------
  C      1.251475   -2.828874    0.000000
  H      2.370601   -2.914550   -0.000000
  C      0.765040   -1.814616    0.000000
  H      1.398801   -0.888262    0.000000
  C     -0.356550   -1.728751   -0.000000
  H     -0.841916   -0.716721   -0.000000
  C     -0.991706   -2.657145   -0.000000
  H     -2.110832   -2.571469    0.000000
  C     -0.505272   -3.671403   -0.000000
  H     -1.139032   -4.597757   -0.000000
  C      0.616319   -3.757267    0.000000
  H      1.101684   -4.769297    0.000000

 Total Charge           Charge          ....    0
 Multiplicity           Mult            ....    1
 Number of Electrons    NEL             ....   42
 Basis Dimension        Dim             ....   96

ORBITAL ENERGIES
----------------

  NO   OCC          E(Eh)            E(eV)
   0   2.0000     -10.219850      -278.0963
   1   2.0000     -10.217692      -278.0375
   2   2.0000     -10.217503      -278.0324
   3   2.0000     -10.213099      -277.9126
   4   2.0000     -10.212905      -277.9073
   5   2.0000     -10.210779      -277.8494
   6   2.0000      -1.137887       -30.9635
   7   2.0000      -0.914983       -24.8980
   8   2.0000      -0.914889       -24.8954
   9   2.0000      -0.736686       -20.0462
  10   2.0000      -0.736436       -20.0394
  11   2.0000      -0.696345       -18.9485
  12   2.0000      -0.621390       -16.9089
  13   2.0000      -0.591655       -16.0998
  14   2.0000      -0.525082       -14.2882
  15   2.0000      -0.524939       -14.2843
  16   2.0000      -0.473321       -12.8797
  17   2.0000      -0.395037       -10.7495
  18   2.0000      -0.394649       -10.7389
  19   2.0000      -0.384639       -10.4666
  20   2.0000      -0.384373       -10.4593
  21   0.0000       0.141357         3.8465
  22   0.0000       0.157239         4.2787
  23   0.0000       0.157572         4.2878
  24   0.0000       0.218666         5.9502
  25   0.0000       0.219269         5.9666

MULLIKEN ATOMIC CHARGES
-----------------------
   0 C :   -0.133164
   1 H :    0.131501
   2 C :   -0.128405
   3 H :    0.129729
   4 C :   -0.128016
   5 H :    0.128354
   6 C :   -0.133164
   7 H :    0.131501
   8 C :   -0.128404
   9 H :    0.129729
  10 C :   -0.128017
  11 H :    0.128354
Sum of atomic charges:    0.0000000

LOEWDIN ATOMIC CHARGES
----------------------
   0 C :   -0.123602
   1 H :    0.123528
   2 C :   -0.123355
   3 H :    0.123405
   4 C :   -0.123084
   5 H :    0.123108
   6 C :   -0.123602
   7 H :    0.123528
   8 C :   -0.123355
   9 H :    0.123405
  10 C :   -0.123084
  11 H :    0.123108

  Mayer bond orders larger than 0.1
B(  0-C ,  1-H ) :   0.8951 B(  0-C ,  2-C ) :   1.5495 B(  0-C , 10-C ) :   1.5526
B(  2-C ,  3-H ) :   0.8956 B(  2-C ,  4-C ) :   1.5514 B(  4-C ,  5-H ) :   0.8957
B(  4-C ,  6-C ) :   1.5526 B(  6-C ,  7-H ) :   0.8951 B(  6-C ,  8-C ) :   1.5495
B(  8-C ,  9-H ) :   0.8956 B(  8-C , 10-C ) :   1.5514 B( 10-C , 11-H ) :   0.8957

Dispersion correction           -0.001859576
FINAL SINGLE POINT ENERGY      -231.488020229065

DIPOLE MOMENT
-------------
                                X             Y             Z
Electronic contribution:      0.00000      -0.00000       0.00000
Nuclear contribution   :     -0.00000      -0.00000       0.00000
                        -----------------------------------------
Total Dipole Moment    :      0.00000      -0.00000       0.00000
                        -----------------------------------------
Magnitude (a.u.)       :      0.00000
Magnitude (Debye)      :      0.00000

                             ****ORCA TERMINATED NORMALLY****
TOTAL RUN TIME: 0 days 0 hours 0 minutes 55 seconds 771 msec
