                         Program Version 4.0.0.2 - RELEASE -
|  1> ! WB97X-D3 6-31G(d) VerySlowConv
|  2> ! KDIIS NOSOSCF
|  3> %base "Scan_10"
|  4>
|  5> %scf
|  6> maxiter 999
|  7> end
|  8>
|  9> * xyz 0 1
| 10> C          1.528017239484   -2.850044668334    0.000000000000
| 11> H          2.603848744101   -2.932406045222    0.000000000000
| 12> C          0.921646166815   -1.585708158585   -0.000000000000
| 13> H          1.530888963572   -0.695191433747   -0.000000000000
| 14> C         -0.476486906330   -1.478672656562   -0.000000000000
| 15> H         -0.943075614000   -0.505794555152   -0.000000000000
| 16> C         -1.268248906146   -2.635973664936    0.000000000000
| 17> H         -2.344080410727   -2.553612287586    0.000000000000
| 18> C         -0.661877833429   -3.900310174784   -0.000000000000
| 19> H         -1.271120629803   -4.790826899884   -0.000000000000
| 20> C          0.736255239606   -4.007345676799   -0.000000000000
| 21> H          1.202843946859   -4.980223778409   -0.000000000000
| 22> **                         ****END OF INPUT****

CARTESIAN COORDINATES (ANGSTROEM)
---------------------------------
  C      1.528017   -2.850045    0.000000
  H      2.603849   -2.932406    0.000000
  C      0.921646   -1.585708   -0.000000
  H      1.530889   -0.695191   -0.000000
  C     -0.476487   -1.478673   -0.000000
  H     -0.943076   -0.505795   -0.000000
  C     -1.268249   -2.635974    0.000000
  H     -2.344080   -2.553612    0.000000
  C     -0.661878   -3.900310   -0.000000
  H     -1.271121   -4.790827   -0.000000
  C      0.736255   -4.007346   -0.000000
  H      1.202844   -4.980224   -0.000000

 Total Charge           Charge          ....    0
 Multiplicity           Mult            ....    1
 Number of Electrons    NEL             ....   42
 Basis Dimension        Dim             ....   96

ORBITAL ENERGIES
----------------

  NO   OCC          E(Eh)            E(eV)
   0   2.0000     -10.285150      -279.8731
   1   2.0000     -10.285005      -279.8692
   2   2.0000     -10.284918      -279.8668
   3   2.0000     -10.284550      -279.8568
   4   2.0000     -10.284454      -279.8542
   5   2.0000     -10.284308      -279.8502
   6   2.0000      -0.962967       -26.2037
   7   2.0000      -0.854861       -23.2619
   8   2.0000      -0.854815       -23.2607
   9   2.0000      -0.706453       -19.2236
  10   2.0000      -0.706392       -19.2219
  11   2.0000      -0.623510       -16.9666
  12   2.0000      -0.563546       -15.3349
  13   2.0000      -0.535057       -14.5596
  14   2.0000      -0.514350       -13.9962
  15   2.0000      -0.514187       -13.9917
  16   2.0000      -0.460846       -12.5402
  17   2.0000      -0.431747       -11.7484
  18   2.0000      -0.431568       -11.7436
  19   2.0000      -0.329977        -8.9791
  20   2.0000      -0.329795        -8.9742
  21   0.0000       0.080893         2.2012
  22   0.0000       0.081038         2.2052
  23   0.0000       0.184691         5.0257
  24   0.0000       0.242304         6.5934
  25   0.0000       0.242817         6.6074

MULLIKEN ATOMIC CHARGES
-----------------------
   0 C :   -0.169457
   1 H :    0.168341
   2 C :   -0.166524
   3 H :    0.167412
   4 C :   -0.165950
   5 H :    0.166177
   6 C :   -0.169457
   7 H :    0.168341
   8 C :   -0.166524
   9 H :    0.167412
  10 C :   -0.165950
  11 H :    0.166177
Sum of atomic charges:    0.0000000

LOEWDIN ATOMIC CHARGES
----------------------
   0 C :   -0.139050
   1 H :    0.138814
   2 C :   -0.138791
   3 H :    0.138865
   4 C :   -0.138696
   5 H :    0.138858
   6 C :   -0.139050
   7 H :    0.138814
   8 C :   -0.138791
   9 H :    0.138865
  10 C :   -0.138696
  11 H :    0.138858

  Mayer bond orders larger than 0.1
B(  0-C ,  1-H ) :   0.9326 B(  0-C ,  2-C ) :   1.4556 B(  0-C , 10-C ) :   1.4566
B(  2-C ,  3-H ) :   0.9330 B(  2-C ,  4-C ) :   1.4556 B(  4-C ,  5-H ) :   0.9334
B(  4-C ,  6-C ) :   1.4566 B(  6-C ,  7-H ) :   0.9326 B(  6-C ,  8-C ) :   1.4556
B(  8-C ,  9-H ) :   0.9330 B(  8-C , 10-C ) :   1.4556 B( 10-C , 11-H ) :   0.9334

Dispersion correction           -0.002153866
FINAL SINGLE POINT ENERGY      -232.172253745798

DIPOLE MOMENT
-------------
                                X             Y             Z
Electronic contribution:      0.00000       0.00000      -0.00000
Nuclear contribution   :      0.00000      -0.00000       0.00000
                        -----------------------------------------
Total Dipole Moment    :      0.00000       0.00000      -0.00000
                        -----------------------------------------
Magnitude (a.u.)       :      0.00000
Magnitude (Debye)      :      0.00000

                             ****ORCA TERMINATED NORMALLY****
TOTAL RUN TIME: 0 days 0 hours 0 minutes 34 seconds 757 msec
