                         Program Version 4.0.0.2 - RELEASE -
|  1> ! WB97X-D3 6-31G(d) VerySlowConv
|  2> ! KDIIS NOSOSCF
|  3> %base "Scan_11"
|  4>
|  5> %scf
|  6> maxiter 999
|  7> end
|  8>
|  9> * xyz 0 1
| 10> C          1.582741526962   -2.854234041966    0.000000004180
| 11> H          2.654810617559   -2.936307673263    0.000000002066
| 12> C          0.952636478216   -1.540410248183   -0.000000000569
| 13> H          1.559748746140   -0.653007840917   -0.000000000282
| 14> C         -0.500220806124   -1.429185289877   -0.000000003600
| 15> H         -0.965177916683   -0.459709555281   -0.000000001784
| 16> C         -1.322973179552   -2.631784116585    0.000000004168
| 17> H         -2.395042303708   -2.549710994639    0.000000002062
| 18> C         -0.692868203886   -3.945608027534   -0.000000000560
| 19> H         -1.299980210477   -4.833010474760   -0.000000000276
| 20> C          0.759989218462   -4.056832990549   -0.000000003619
| 21> H          1.224946033090   -5.026308746446   -0.000000001785
| 22> **                         ****END OF INPUT****

CARTESIAN COORDINATES (ANGSTROEM)
---------------------------------
  C      1.582742   -2.854234    0.000000
  H      2.654811   -2.936308    0.000000
  C      0.952636   -1.540410   -0.000000
  H      1.559749   -0.653008   -0.000000
  C     -0.500221   -1.429185   -0.000000
  H     -0.965178   -0.459710   -0.000000
  C     -1.322973   -2.631784    0.000000
  H     -2.395042   -2.549711    0.000000
  C     -0.692868   -3.945608   -0.000000
  H     -1.299980   -4.833010   -0.000000
  C      0.759989   -4.056833   -0.000000
  H      1.224946   -5.026309   -0.000000

 Total Charge           Charge          ....    0
 Multiplicity           Mult            ....    1
 Number of Electrons    NEL             ....   42
 Basis Dimension        Dim             ....   96

ORBITAL ENERGIES
----------------

  NO   OCC          E(Eh)            E(eV)
   0   2.0000     -10.299054      -280.2515
   1   2.0000     -10.298996      -280.2499
   2   2.0000     -10.298903      -280.2474
   3   2.0000     -10.298685      -280.2415
   4   2.0000     -10.298605      -280.2393
   5   2.0000     -10.298523      -280.2371
   6   2.0000      -0.938289       -25.5321
   7   2.0000      -0.843138       -22.9429
   8   2.0000      -0.843099       -22.9419
   9   2.0000      -0.703043       -19.1308
  10   2.0000      -0.702997       -19.1295
  11   2.0000      -0.611634       -16.6434
  12   2.0000      -0.577624       -15.7180
  13   2.0000      -0.519854       -14.1459
  14   2.0000      -0.511061       -13.9067
  15   2.0000      -0.510927       -13.9030
  16   2.0000      -0.443142       -12.0585
  17   2.0000      -0.433982       -11.8093
  18   2.0000      -0.433908       -11.8072
  19   2.0000      -0.322214        -8.7679
  20   2.0000      -0.322061        -8.7637
  21   0.0000       0.068773         1.8714
  22   0.0000       0.068900         1.8749
  23   0.0000       0.189414         5.1542
  24   0.0000       0.231924         6.3110
  25   0.0000       0.244562         6.6549

MULLIKEN ATOMIC CHARGES
-----------------------
   0 C :   -0.174007
   1 H :    0.173043
   2 C :   -0.171691
   3 H :    0.172307
   4 C :   -0.170809
   5 H :    0.171157
   6 C :   -0.174007
   7 H :    0.173043
   8 C :   -0.171691
   9 H :    0.172307
  10 C :   -0.170809
  11 H :    0.171157
Sum of atomic charges:    0.0000000

LOEWDIN ATOMIC CHARGES
----------------------
   0 C :   -0.140935
   1 H :    0.140740
   2 C :   -0.140829
   3 H :    0.140842
   4 C :   -0.140668
   5 H :    0.140850
   6 C :   -0.140935
   7 H :    0.140740
   8 C :   -0.140829
   9 H :    0.140842
  10 C :   -0.140668
  11 H :    0.140850

  Mayer bond orders larger than 0.1
B(  0-C ,  1-H ) :   0.9318 B(  0-C ,  2-C ) :   1.4431 B(  0-C ,  6-C ) :   0.1014
B(  0-C , 10-C ) :   1.4441 B(  2-C ,  3-H ) :   0.9321 B(  2-C ,  4-C ) :   1.4432
B(  2-C ,  8-C ) :   0.1011 B(  4-C ,  5-H ) :   0.9325 B(  4-C ,  6-C ) :   1.4441
B(  4-C , 10-C ) :   0.1011 B(  6-C ,  7-H ) :   0.9318 B(  6-C ,  8-C ) :   1.4431
B(  8-C ,  9-H ) :   0.9321 B(  8-C , 10-C ) :   1.4432 B( 10-C , 11-H ) :   0.9325

Dispersion correction           -0.002152711
FINAL SINGLE POINT ENERGY      -232.151216437912

DIPOLE MOMENT
-------------
                                X             Y             Z
Electronic contribution:      0.00000       0.00000      -0.00000
Nuclear contribution   :     -0.00000      -0.00000       0.00000
                        -----------------------------------------
Total Dipole Moment    :     -0.00000      -0.00000      -0.00000
                        -----------------------------------------
Magnitude (a.u.)       :      0.00000
Magnitude (Debye)      :      0.00000

                             ****ORCA TERMINATED NORMALLY****
TOTAL RUN TIME: 0 days 0 hours 0 minutes 37 seconds 382 msec
