                         Program Version 4.0.0.2 - RELEASE -
|  1> ! WB97X-D3 6-31G(d) VerySlowConv
|  2> ! KDIIS NOSOSCF
|  3> %base "Scan_12"
|  4>
|  5> %scf
|  6> maxiter 999
|  7> end
|  8>
|  9> * xyz 0 1
| 10> C          1.646111783429   -2.859085281346   -0.000096582669
| 11> H          2.714586039146   -2.940884606762   -0.000016254092
| 12> C          0.988523121010   -1.487955404749   -0.000012496177
| 13> H          1.593600001806   -0.603528849151   -0.000002451022
| 14> C         -0.527704570626   -1.371879076065    0.000094894147
| 15> H         -0.991103044992   -0.405654340654    0.000016549059
| 16> C         -1.386343406256   -2.626932586818   -0.000068157318
| 17> H         -2.454817830061   -2.545135613158   -0.000012000891
| 18> C         -0.728754604896   -3.998062279001   -0.000040906707
| 19> H         -1.333830582110   -4.882489434922   -0.000006712749
| 20> C          0.787472885972   -4.114138638957    0.000123311644
| 21> H          1.250870207578   -5.080363888417    0.000020806776
| 22> **                         ****END OF INPUT****

CARTESIAN COORDINATES (ANGSTROEM)
---------------------------------
  C      1.646112   -2.859085   -0.000097
  H      2.714586   -2.940885   -0.000016
  C      0.988523   -1.487955   -0.000012
  H      1.593600   -0.603529   -0.000002
  C     -0.527705   -1.371879    0.000095
  H     -0.991103   -0.405654    0.000017
  C     -1.386343   -2.626933   -0.000068
  H     -2.454818   -2.545136   -0.000012
  C     -0.728755   -3.998062   -0.000041
  H     -1.333831   -4.882489   -0.000007
  C      0.787473   -4.114139    0.000123
  H      1.250870   -5.080364    0.000021

 Total Charge           Charge          ....    0
 Multiplicity           Mult            ....    1
 Number of Electrons    NEL             ....   42
 Basis Dimension        Dim             ....   96

ORBITAL ENERGIES
----------------

  NO   OCC          E(Eh)            E(eV)
   0   2.0000     -10.314355      -280.6679
   1   2.0000     -10.314352      -280.6678
   2   2.0000     -10.314238      -280.6647
   3   2.0000     -10.314131      -280.6618
   4   2.0000     -10.314056      -280.6597
   5   2.0000     -10.314022      -280.6588
   6   2.0000      -0.912849       -24.8399
   7   2.0000      -0.830436       -22.5973
   8   2.0000      -0.830388       -22.5960
   9   2.0000      -0.700349       -19.0575
  10   2.0000      -0.700314       -19.0565
  11   2.0000      -0.598641       -16.2898
  12   2.0000      -0.592727       -16.1289
  13   2.0000      -0.506963       -13.7952
  14   2.0000      -0.506843       -13.7919
  15   2.0000      -0.502875       -13.6839
  16   2.0000      -0.434790       -11.8312
  17   2.0000      -0.434751       -11.8302
  18   2.0000      -0.424877       -11.5615
  19   2.0000      -0.314100        -8.5471
  20   2.0000      -0.313961        -8.5433
  21   0.0000       0.055747         1.5170
  22   0.0000       0.055858         1.5200
  23   0.0000       0.194063         5.2807
  24   0.0000       0.203450         5.5362
  25   0.0000       0.244819         6.6619

MULLIKEN ATOMIC CHARGES
-----------------------
   0 C :   -0.179093
   1 H :    0.178187
   2 C :   -0.177300
   3 H :    0.177663
   4 C :   -0.176069
   5 H :    0.176613
   6 C :   -0.179093
   7 H :    0.178187
   8 C :   -0.177300
   9 H :    0.177663
  10 C :   -0.176069
  11 H :    0.176613
Sum of atomic charges:   -0.0000000

LOEWDIN ATOMIC CHARGES
----------------------
   0 C :   -0.142918
   1 H :    0.142767
   2 C :   -0.142957
   3 H :    0.142916
   4 C :   -0.142742
   5 H :    0.142933
   6 C :   -0.142918
   7 H :    0.142767
   8 C :   -0.142957
   9 H :    0.142916
  10 C :   -0.142742
  11 H :    0.142933

  Mayer bond orders larger than 0.1
B(  0-C ,  1-H ) :   0.9287 B(  0-C ,  2-C ) :   1.4303 B(  0-C ,  6-C ) :   0.1041
B(  0-C , 10-C ) :   1.4310 B(  2-C ,  3-H ) :   0.9289 B(  2-C ,  4-C ) :   1.4303
B(  2-C ,  8-C ) :   0.1038 B(  4-C ,  5-H ) :   0.9292 B(  4-C ,  6-C ) :   1.4310
B(  4-C , 10-C ) :   0.1038 B(  6-C ,  7-H ) :   0.9287 B(  6-C ,  8-C ) :   1.4303
B(  8-C ,  9-H ) :   0.9289 B(  8-C , 10-C ) :   1.4303 B( 10-C , 11-H ) :   0.9292

Dispersion correction           -0.002162517
FINAL SINGLE POINT ENERGY      -232.096606713484

DIPOLE MOMENT
-------------
                                X             Y             Z
Electronic contribution:      0.00000       0.00000       0.00000
Nuclear contribution   :     -0.00000      -0.00000      -0.00000
                        -----------------------------------------
Total Dipole Moment    :     -0.00000      -0.00000       0.00000
                        -----------------------------------------
Magnitude (a.u.)       :      0.00000
Magnitude (Debye)      :      0.00000

                             ****ORCA TERMINATED NORMALLY****
TOTAL RUN TIME: 0 days 0 hours 0 minutes 34 seconds 925 msec
