                         Program Version 4.0.0.2 - RELEASE -
|  1> ! WB97X-D3 6-31G(d) VerySlowConv
|  2> ! KDIIS NOSOSCF
|  3> %base "Scan_13"
|  4>
|  5> %scf
|  6> maxiter 999
|  7> end
|  8>
|  9> * xyz 0 1
| 10> C          1.719638533106   -2.864714189311   -0.000834541651
| 11> H          2.784847292270   -2.946262490098   -0.000083528385
| 12> C          1.030160394998   -1.427095224282    0.000833041739
| 13> H          1.633387866340   -0.545371140090    0.000067115391
| 14> C         -0.559592967864   -1.305388849669   -0.000828779828
| 15> H         -1.021574641869   -0.342116867665   -0.000054666106
| 16> C         -1.459869139468   -2.621303756379    0.000826748252
| 17> H         -2.525078305542   -2.539755659124    0.000058051772
| 18> C         -0.770393100887   -4.058924446453   -0.000828663535
| 19> H         -1.373620121092   -4.940648279688   -0.000074220746
| 20> C          0.819361209912   -4.180628449665    0.000832556537
| 21> H          1.281342980097   -5.143900647578    0.000086886560
| 22> **                         ****END OF INPUT****

CARTESIAN COORDINATES (ANGSTROEM)
---------------------------------
  C      1.719639   -2.864714   -0.000835
  H      2.784847   -2.946262   -0.000084
  C      1.030160   -1.427095    0.000833
  H      1.633388   -0.545371    0.000067
  C     -0.559593   -1.305389   -0.000829
  H     -1.021575   -0.342117   -0.000055
  C     -1.459869   -2.621304    0.000827
  H     -2.525078   -2.539756    0.000058
  C     -0.770393   -4.058924   -0.000829
  H     -1.373620   -4.940648   -0.000074
  C      0.819361   -4.180628    0.000833
  H      1.281343   -5.143901    0.000087

 Total Charge           Charge          ....    0
 Multiplicity           Mult            ....    1
 Number of Electrons    NEL             ....   42
 Basis Dimension        Dim             ....   96

ORBITAL ENERGIES
----------------

  NO   OCC          E(Eh)            E(eV)
   0   2.0000     -10.330784      -281.1149
   1   2.0000     -10.330758      -281.1142
   2   2.0000     -10.330646      -281.1112
   3   2.0000     -10.330595      -281.1098
   4   2.0000     -10.330541      -281.1083
   5   2.0000     -10.330533      -281.1081
   6   2.0000      -0.887177       -24.1413
   7   2.0000      -0.817106       -22.2346
   8   2.0000      -0.817042       -22.2328
   9   2.0000      -0.698830       -19.0161
  10   2.0000      -0.698800       -19.0153
  11   2.0000      -0.608751       -16.5650
  12   2.0000      -0.584391       -15.9021
  13   2.0000      -0.501850       -13.6560
  14   2.0000      -0.501744       -13.6532
  15   2.0000      -0.484026       -13.1710
  16   2.0000      -0.433658       -11.8004
  17   2.0000      -0.433522       -11.7967
  18   2.0000      -0.406248       -11.0546
  19   2.0000      -0.305701        -8.3186
  20   2.0000      -0.305571        -8.3150
  21   0.0000       0.041861         1.1391
  22   0.0000       0.041952         1.1416
  23   0.0000       0.173713         4.7270
  24   0.0000       0.198527         5.4022
  25   0.0000       0.217187         5.9100

MULLIKEN ATOMIC CHARGES
-----------------------
   0 C :   -0.184838
   1 H :    0.183993
   2 C :   -0.183654
   3 H :    0.183718
   4 C :   -0.181964
   5 H :    0.182746
   6 C :   -0.184838
   7 H :    0.183993
   8 C :   -0.183655
   9 H :    0.183718
  10 C :   -0.181964
  11 H :    0.182745
Sum of atomic charges:   -0.0000000

LOEWDIN ATOMIC CHARGES
----------------------
   0 C :   -0.144999
   1 H :    0.144882
   2 C :   -0.145192
   3 H :    0.145083
   4 C :   -0.144865
   5 H :    0.145091
   6 C :   -0.144998
   7 H :    0.144882
   8 C :   -0.145192
   9 H :    0.145083
  10 C :   -0.144865
  11 H :    0.145091

  Mayer bond orders larger than 0.1
B(  0-C ,  1-H ) :   0.9229 B(  0-C ,  2-C ) :   1.4167 B(  0-C ,  6-C ) :   0.1062
B(  0-C , 10-C ) :   1.4171 B(  2-C ,  3-H ) :   0.9228 B(  2-C ,  4-C ) :   1.4165
B(  2-C ,  8-C ) :   0.1059 B(  4-C ,  5-H ) :   0.9232 B(  4-C ,  6-C ) :   1.4171
B(  4-C , 10-C ) :   0.1059 B(  6-C ,  7-H ) :   0.9229 B(  6-C ,  8-C ) :   1.4167
B(  8-C ,  9-H ) :   0.9228 B(  8-C , 10-C ) :   1.4165 B( 10-C , 11-H ) :   0.9232

Dispersion correction           -0.002193255
FINAL SINGLE POINT ENERGY      -232.005053793029

DIPOLE MOMENT
-------------
                                X             Y             Z
Electronic contribution:     -0.00000       0.00000       0.00000
Nuclear contribution   :      0.00000      -0.00000      -0.00000
                        -----------------------------------------
Total Dipole Moment    :      0.00000       0.00000      -0.00000
                        -----------------------------------------
Magnitude (a.u.)       :      0.00000
Magnitude (Debye)      :      0.00000

                             ****ORCA TERMINATED NORMALLY****
TOTAL RUN TIME: 0 days 0 hours 0 minutes 30 seconds 420 msec
