                         Program Version 4.0.0.2 - RELEASE -
|  1> ! WB97X-D3 6-31G(d) VerySlowConv
|  2> ! KDIIS NOSOSCF
|  3> %base "Scan_14"
|  4>
|  5> %scf
|  6> maxiter 999
|  7> end
|  8>
|  9> * xyz 0 1
| 10> C          1.804047058196   -2.871177125220    0.000167917780
| 11> H          2.866528993204   -2.952516245435   -0.000035456757
| 12> C          1.077961266626   -1.357226152025   -0.000173297568
| 13> H          1.679644460562   -0.477759035058    0.000022373125
| 14> C         -0.596201802431   -1.229057902377    0.000180664343
| 15> H         -1.057000591690   -0.268251763667   -0.000011164673
| 16> C         -1.544277039582   -2.614842763852   -0.000183016012
| 17> H         -2.606759437617   -2.533503052854    0.000013201243
| 18> C         -0.818192856728   -4.128792702450    0.000178666652
| 19> H         -1.419875805698   -5.008259288774   -0.000026912275
| 20> C          0.855968174414   -4.256958804372   -0.000170769622
| 21> H          1.316767580743   -5.217765163915    0.000037793763
| 22> **                         ****END OF INPUT****

CARTESIAN COORDINATES (ANGSTROEM)
---------------------------------
  C      1.804047   -2.871177    0.000168
  H      2.866529   -2.952516   -0.000035
  C      1.077961   -1.357226   -0.000173
  H      1.679644   -0.477759    0.000022
  C     -0.596202   -1.229058    0.000181
  H     -1.057001   -0.268252   -0.000011
  C     -1.544277   -2.614843   -0.000183
  H     -2.606759   -2.533503    0.000013
  C     -0.818193   -4.128793    0.000179
  H     -1.419876   -5.008259   -0.000027
  C      0.855968   -4.256959   -0.000171
  H      1.316768   -5.217765    0.000038

 Total Charge           Charge          ....    0
 Multiplicity           Mult            ....    1
 Number of Electrons    NEL             ....   42
 Basis Dimension        Dim             ....   96

ORBITAL ENERGIES
----------------

  NO   OCC          E(Eh)            E(eV)
   0   2.0000     -10.347646      -281.5738
   1   2.0000     -10.347622      -281.5731
   2   2.0000     -10.347487      -281.5694
   3   2.0000     -10.347455      -281.5686
   4   2.0000     -10.347427      -281.5678
   5   2.0000     -10.347422      -281.5677
   6   2.0000      -0.862311       -23.4647
   7   2.0000      -0.803841       -21.8736
   8   2.0000      -0.803762       -21.8715
   9   2.0000      -0.698948       -19.0193
  10   2.0000      -0.698921       -19.0186
  11   2.0000      -0.625349       -17.0166
  12   2.0000      -0.568980       -15.4827
  13   2.0000      -0.495575       -13.4853
  14   2.0000      -0.495477       -13.4826
  15   2.0000      -0.463532       -12.6133
  16   2.0000      -0.430077       -11.7030
  17   2.0000      -0.429886       -11.6978
  18   2.0000      -0.387672       -10.5491
  19   2.0000      -0.297187        -8.0869
  20   2.0000      -0.297076        -8.0838
  21   0.0000       0.027383         0.7451
  22   0.0000       0.027447         0.7469
  23   0.0000       0.143553         3.9063
  24   0.0000       0.180967         4.9244
  25   0.0000       0.181344         4.9346

MULLIKEN ATOMIC CHARGES
-----------------------
   0 C :   -0.191305
   1 H :    0.190552
   2 C :   -0.190703
   3 H :    0.190530
   4 C :   -0.188694
   5 H :    0.189621
   6 C :   -0.191305
   7 H :    0.190551
   8 C :   -0.190704
   9 H :    0.190530
  10 C :   -0.188693
  11 H :    0.189620
Sum of atomic charges:   -0.0000000

LOEWDIN ATOMIC CHARGES
----------------------
   0 C :   -0.147158
   1 H :    0.147058
   2 C :   -0.147493
   3 H :    0.147300
   4 C :   -0.147009
   5 H :    0.147301
   6 C :   -0.147157
   7 H :    0.147058
   8 C :   -0.147493
   9 H :    0.147301
  10 C :   -0.147008
  11 H :    0.147301

  Mayer bond orders larger than 0.1
B(  0-C ,  1-H ) :   0.9139 B(  0-C ,  2-C ) :   1.4020 B(  0-C ,  6-C ) :   0.1076
B(  0-C , 10-C ) :   1.4021 B(  2-C ,  3-H ) :   0.9137 B(  2-C ,  4-C ) :   1.4015
B(  2-C ,  8-C ) :   0.1074 B(  4-C ,  5-H ) :   0.9141 B(  4-C ,  6-C ) :   1.4021
B(  4-C , 10-C ) :   0.1074 B(  6-C ,  7-H ) :   0.9139 B(  6-C ,  8-C ) :   1.4020
B(  8-C ,  9-H ) :   0.9137 B(  8-C , 10-C ) :   1.4015 B( 10-C , 11-H ) :   0.9141

Dispersion correction           -0.002255077
FINAL SINGLE POINT ENERGY      -231.876361674225

DIPOLE MOMENT
-------------
                                X             Y             Z
Electronic contribution:     -0.00000      -0.00000       0.00000
Nuclear contribution   :      0.00000       0.00000      -0.00000
                        -----------------------------------------
Total Dipole Moment    :     -0.00000      -0.00000      -0.00000
                        -----------------------------------------
Magnitude (a.u.)       :      0.00000
Magnitude (Debye)      :      0.00000

                             ****ORCA TERMINATED NORMALLY****
TOTAL RUN TIME: 0 days 0 hours 0 minutes 28 seconds 191 msec
