                         Program Version 4.0.0.2 - RELEASE -
|  1> ! WB97X-D3 6-31G(d) VerySlowConv
|  2> ! KDIIS NOSOSCF
|  3> %base "Scan_15"
|  4>
|  5> %scf
|  6> maxiter 999
|  7> end
|  8>
|  9> * xyz 0 1
| 10> C          1.890338872268   -2.877764024667    0.121761229536
| 11> H          2.935205972148   -2.957778038157   -0.080720743760
| 12> C          1.126807201108   -1.285778804076   -0.121757842201
| 13> H          1.718549619747   -0.420915727532    0.080706349285
| 14> C         -0.633639960785   -1.151021955361    0.121852440366
| 15> H         -1.086776727690   -0.206175312610   -0.080771759499
| 16> C         -1.630573701547   -2.608213758677   -0.121846865942
| 17> H         -2.675405221773   -2.528250024080    0.080767498977
| 18> C         -0.867086985170   -4.200206357274    0.121737181303
| 19> H         -1.458773720912   -5.065115630085   -0.080712700272
| 20> C          0.893389039706   -4.334998480792   -0.121692814775
| 21> H          1.346575612898   -5.279891886690    0.080678026983
| 22> **                         ****END OF INPUT****

CARTESIAN COORDINATES (ANGSTROEM)
---------------------------------
  C      1.890339   -2.877764    0.121761
  H      2.935206   -2.957778   -0.080721
  C      1.126807   -1.285779   -0.121758
  H      1.718550   -0.420916    0.080706
  C     -0.633640   -1.151022    0.121852
  H     -1.086777   -0.206175   -0.080772
  C     -1.630574   -2.608214   -0.121847
  H     -2.675405   -2.528250    0.080767
  C     -0.867087   -4.200206    0.121737
  H     -1.458774   -5.065116   -0.080713
  C      0.893389   -4.334998   -0.121693
  H      1.346576   -5.279892    0.080678

 Total Charge           Charge          ....    0
 Multiplicity           Mult            ....    1
 Number of Electrons    NEL             ....   42
 Basis Dimension        Dim             ....   96

ORBITAL ENERGIES
----------------

  NO   OCC          E(Eh)            E(eV)
   0   2.0000     -10.363870      -282.0153
   1   2.0000     -10.363840      -282.0144
   2   2.0000     -10.363759      -282.0122
   3   2.0000     -10.363738      -282.0117
   4   2.0000     -10.363701      -282.0106
   5   2.0000     -10.363701      -282.0106
   6   2.0000      -0.841013       -22.8851
   7   2.0000      -0.792424       -21.5630
   8   2.0000      -0.792403       -21.5624
   9   2.0000      -0.700562       -19.0633
  10   2.0000      -0.700520       -19.0621
  11   2.0000      -0.640302       -17.4235
  12   2.0000      -0.548559       -14.9271
  13   2.0000      -0.482402       -13.1268
  14   2.0000      -0.482382       -13.1263
  15   2.0000      -0.438195       -11.9239
  16   2.0000      -0.418285       -11.3821
  17   2.0000      -0.418237       -11.3808
  18   2.0000      -0.375359       -10.2140
  19   2.0000      -0.295346        -8.0368
  20   2.0000      -0.295249        -8.0341
  21   0.0000       0.000610         0.0166
  22   0.0000       0.000693         0.0189
  23   0.0000       0.094012         2.5582
  24   0.0000       0.145871         3.9693
  25   0.0000       0.146142         3.9767

MULLIKEN ATOMIC CHARGES
-----------------------
   0 C :   -0.194251
   1 H :    0.193421
   2 C :   -0.192805
   3 H :    0.192794
   4 C :   -0.191841
   5 H :    0.192673
   6 C :   -0.194250
   7 H :    0.193421
   8 C :   -0.192812
   9 H :    0.192794
  10 C :   -0.191817
  11 H :    0.192675
Sum of atomic charges:   -0.0000000

LOEWDIN ATOMIC CHARGES
----------------------
   0 C :   -0.146638
   1 H :    0.146301
   2 C :   -0.146190
   3 H :    0.146231
   4 C :   -0.145719
   5 H :    0.146003
   6 C :   -0.146641
   7 H :    0.146300
   8 C :   -0.146196
   9 H :    0.146232
  10 C :   -0.145688
  11 H :    0.146005

  Mayer bond orders larger than 0.1
B(  0-C ,  1-H ) :   0.8994 B(  0-C ,  2-C ) :   1.3548 B(  0-C ,  6-C ) :   0.1033
B(  0-C , 10-C ) :   1.3549 B(  2-C ,  3-H ) :   0.8995 B(  2-C ,  4-C ) :   1.3545
B(  2-C ,  8-C ) :   0.1031 B(  4-C ,  5-H ) :   0.8995 B(  4-C ,  6-C ) :   1.3548
B(  4-C , 10-C ) :   0.1031 B(  6-C ,  7-H ) :   0.8994 B(  6-C ,  8-C ) :   1.3548
B(  8-C ,  9-H ) :   0.8995 B(  8-C , 10-C ) :   1.3545 B( 10-C , 11-H ) :   0.8995

Dispersion correction           -0.002349645
FINAL SINGLE POINT ENERGY      -231.699986111665

DIPOLE MOMENT
-------------
                                X             Y             Z
Electronic contribution:      0.00002      -0.00003       0.00005
Nuclear contribution   :      0.00012      -0.00012      -0.00009
                        -----------------------------------------
Total Dipole Moment    :      0.00014      -0.00016      -0.00004
                        -----------------------------------------
Magnitude (a.u.)       :      0.00021
Magnitude (Debye)      :      0.00054

                             ****ORCA TERMINATED NORMALLY****
TOTAL RUN TIME: 0 days 0 hours 0 minutes 24 seconds 44 msec
