                         Program Version 4.0.0.2 - RELEASE -
|  1> ! WB97X-D3 6-31G(d) VerySlowConv
|  2> ! KDIIS NOSOSCF
|  3> %base "Scan_16"
|  4>
|  5> %scf
|  6> maxiter 999
|  7> end
|  8>
|  9> * xyz 0 1
| 10> C          1.980017234389   -2.884657280427    0.203414275548
| 11> H          2.995812058696   -2.962453997734   -0.133556537225
| 12> C          1.177671276255   -1.211563688801   -0.203242939291
| 13> H          1.752852033273   -0.370702893256    0.133759780484
| 14> C         -0.672510275162   -1.069972519647    0.203135207657
| 15> H         -1.113106536868   -0.151319027694   -0.133628953036
| 16> C         -1.720235683034   -2.601425835706   -0.203406877452
| 17> H         -2.736074911187   -2.523542918254    0.133423261024
| 18> C         -0.917827440187   -4.274422713514    0.203504722341
| 19> H         -1.493112474467   -5.115338368395   -0.133178618997
| 20> C          0.932238099332   -4.416005914271   -0.203388630414
| 21> H          1.372886618959   -5.334704842301    0.133165309359
| 22> **                         ****END OF INPUT****

CARTESIAN COORDINATES (ANGSTROEM)
---------------------------------
  C      1.980017   -2.884657    0.203414
  H      2.995812   -2.962454   -0.133557
  C      1.177671   -1.211564   -0.203243
  H      1.752852   -0.370703    0.133760
  C     -0.672510   -1.069973    0.203135
  H     -1.113107   -0.151319   -0.133629
  C     -1.720236   -2.601426   -0.203407
  H     -2.736075   -2.523543    0.133423
  C     -0.917827   -4.274423    0.203505
  H     -1.493112   -5.115338   -0.133179
  C      0.932238   -4.416006   -0.203389
  H      1.372887   -5.334705    0.133165

 Total Charge           Charge          ....    0
 Multiplicity           Mult            ....    1
 Number of Electrons    NEL             ....   42
 Basis Dimension        Dim             ....   96

ORBITAL ENERGIES
----------------

  NO   OCC          E(Eh)            E(eV)
   0   2.0000     -10.376337      -282.3545
   1   2.0000     -10.376306      -282.3536
   2   2.0000     -10.376294      -282.3533
   3   2.0000     -10.376286      -282.3531
   4   2.0000     -10.376273      -282.3527
   5   2.0000     -10.376257      -282.3523
   6   2.0000      -0.821733       -22.3605
   7   2.0000      -0.781674       -21.2704
   8   2.0000      -0.781652       -21.2698
   9   2.0000      -0.702512       -19.1163
  10   2.0000      -0.702444       -19.1145
  11   2.0000      -0.653065       -17.7708
  12   2.0000      -0.523576       -14.2472
  13   2.0000      -0.464342       -12.6354
  14   2.0000      -0.464285       -12.6338
  15   2.0000      -0.411858       -11.2072
  16   2.0000      -0.402932       -10.9643
  17   2.0000      -0.402855       -10.9622
  18   2.0000      -0.369251       -10.0478
  19   2.0000      -0.296963        -8.0808
  20   2.0000      -0.296848        -8.0776
  21   0.0000      -0.026459        -0.7200
  22   0.0000      -0.026373        -0.7177
  23   0.0000       0.049137         1.3371
  24   0.0000       0.116409         3.1677
  25   0.0000       0.116615         3.1732

MULLIKEN ATOMIC CHARGES
-----------------------
   0 C :   -0.194596
   1 H :    0.193860
   2 C :   -0.192948
   3 H :    0.193248
   4 C :   -0.193028
   5 H :    0.193427
   6 C :   -0.194583
   7 H :    0.193860
   8 C :   -0.192938
   9 H :    0.193233
  10 C :   -0.192942
  11 H :    0.193407
Sum of atomic charges:   -0.0000000

LOEWDIN ATOMIC CHARGES
----------------------
   0 C :   -0.142607
   1 H :    0.142293
   2 C :   -0.141883
   3 H :    0.142191
   4 C :   -0.141885
   5 H :    0.141864
   6 C :   -0.142591
   7 H :    0.142294
   8 C :   -0.141887
   9 H :    0.142182
  10 C :   -0.141820
  11 H :    0.141850

  Mayer bond orders larger than 0.1
B(  0-C ,  1-H ) :   0.8854 B(  0-C ,  2-C ) :   1.2642 B(  0-C , 10-C ) :   1.2643
B(  2-C ,  3-H ) :   0.8856 B(  2-C ,  4-C ) :   1.2640 B(  4-C ,  5-H ) :   0.8854
B(  4-C ,  6-C ) :   1.2643 B(  6-C ,  7-H ) :   0.8854 B(  6-C ,  8-C ) :   1.2643
B(  8-C ,  9-H ) :   0.8856 B(  8-C , 10-C ) :   1.2640 B( 10-C , 11-H ) :   0.8854

Dispersion correction           -0.002544833
FINAL SINGLE POINT ENERGY      -231.511579767298

DIPOLE MOMENT
-------------
                                X             Y             Z
Electronic contribution:      0.00008      -0.00011      -0.00004
Nuclear contribution   :     -0.00008      -0.00001      -0.00003
                        -----------------------------------------
Total Dipole Moment    :     -0.00001      -0.00012      -0.00006
                        -----------------------------------------
Magnitude (a.u.)       :      0.00013
Magnitude (Debye)      :      0.00034

                             ****ORCA TERMINATED NORMALLY****
TOTAL RUN TIME: 0 days 0 hours 0 minutes 27 seconds 488 msec
