                         Program Version 4.0.0.2 - RELEASE -
|  1> ! WB97X-D3 6-31G(d) VerySlowConv
|  2> ! KDIIS NOSOSCF
|  3> %base "Scan_17"
|  4>
|  5> %scf
|  6> maxiter 999
|  7> end
|  8>
|  9> * xyz 0 1
| 10> C          2.081844253679   -2.892546986093    0.248540496058
| 11> H          3.064210288603   -2.967650599808   -0.192715536178
| 12> C          1.235248691698   -1.127303746988   -0.248168458180
| 13> H          1.791636005211   -0.314097248046    0.192854060214
| 14> C         -0.716849811900   -0.978024671915    0.248513240588
| 15> H         -1.142732512858   -0.089462657420   -0.192808238603
| 16> C         -1.822050489337   -2.593717607097   -0.249558390862
| 17> H         -2.804201967147   -2.518441328325    0.192821937695
| 18> C         -0.975496832166   -4.358497526980    0.249499682263
| 19> H         -1.531706856237   -5.171744404167   -0.192411556277
| 20> C          0.976228450697   -4.508058875822   -0.248852793131
| 21> H          1.402480779756   -5.396564347339    0.192285556414
| 22> **                         ****END OF INPUT****

CARTESIAN COORDINATES (ANGSTROEM)
---------------------------------
  C      2.081844   -2.892547    0.248540
  H      3.064210   -2.967651   -0.192716
  C      1.235249   -1.127304   -0.248168
  H      1.791636   -0.314097    0.192854
  C     -0.716850   -0.978025    0.248513
  H     -1.142733   -0.089463   -0.192808
  C     -1.822050   -2.593718   -0.249558
  H     -2.804202   -2.518441    0.192822
  C     -0.975497   -4.358498    0.249500
  H     -1.531707   -5.171744   -0.192412
  C      0.976228   -4.508059   -0.248853
  H      1.402481   -5.396564    0.192286

 Total Charge           Charge          ....    0
 Multiplicity           Mult            ....    1
 Number of Electrons    NEL             ....   42
 Basis Dimension        Dim             ....   96

ORBITAL ENERGIES
----------------

  NO   OCC          E(Eh)            E(eV)
   0   2.0000     -10.385079      -282.5924
   1   2.0000     -10.385046      -282.5915
   2   2.0000     -10.385045      -282.5914
   3   2.0000     -10.385015      -282.5906
   4   2.0000     -10.385000      -282.5902
   5   2.0000     -10.384983      -282.5898
   6   2.0000      -0.804345       -21.8873
   7   2.0000      -0.771667       -20.9981
   8   2.0000      -0.771625       -20.9970
   9   2.0000      -0.704801       -19.1786
  10   2.0000      -0.704710       -19.1761
  11   2.0000      -0.664456       -18.0808
  12   2.0000      -0.498891       -13.5755
  13   2.0000      -0.447701       -12.1826
  14   2.0000      -0.447673       -12.1818
  15   2.0000      -0.392086       -10.6692
  16   2.0000      -0.392052       -10.6683
  17   2.0000      -0.389797       -10.6069
  18   2.0000      -0.366098        -9.9620
  19   2.0000      -0.295333        -8.0364
  20   2.0000      -0.295267        -8.0346
  21   0.0000      -0.044055        -1.1988
  22   0.0000      -0.043981        -1.1968
  23   0.0000       0.019196         0.5224
  24   0.0000       0.089500         2.4354
  25   0.0000       0.089756         2.4424

MULLIKEN ATOMIC CHARGES
-----------------------
   0 C :   -0.192642
   1 H :    0.191873
   2 C :   -0.191430
   3 H :    0.191617
   4 C :   -0.191030
   5 H :    0.191669
   6 C :   -0.192585
   7 H :    0.191774
   8 C :   -0.191350
   9 H :    0.191497
  10 C :   -0.191039
  11 H :    0.191646
Sum of atomic charges:   -0.0000000

LOEWDIN ATOMIC CHARGES
----------------------
   0 C :   -0.138301
   1 H :    0.137953
   2 C :   -0.137678
   3 H :    0.137926
   4 C :   -0.137538
   5 H :    0.137789
   6 C :   -0.138386
   7 H :    0.137915
   8 C :   -0.137758
   9 H :    0.137875
  10 C :   -0.137574
  11 H :    0.137778

  Mayer bond orders larger than 0.1
B(  0-C ,  1-H ) :   0.8780 B(  0-C ,  2-C ) :   1.1516 B(  0-C , 10-C ) :   1.1514
B(  2-C ,  3-H ) :   0.8781 B(  2-C ,  4-C ) :   1.1512 B(  4-C ,  5-H ) :   0.8780
B(  4-C ,  6-C ) :   1.1510 B(  6-C ,  7-H ) :   0.8781 B(  6-C ,  8-C ) :   1.1509
B(  8-C ,  9-H ) :   0.8782 B(  8-C , 10-C ) :   1.1508 B( 10-C , 11-H ) :   0.8780

Dispersion correction           -0.002725548
FINAL SINGLE POINT ENERGY      -231.342853482812

DIPOLE MOMENT
-------------
                                X             Y             Z
Electronic contribution:      0.00069       0.00067       0.00000
Nuclear contribution   :      0.00066       0.00016       0.00005
                        -----------------------------------------
Total Dipole Moment    :      0.00135       0.00083       0.00005
                        -----------------------------------------
Magnitude (a.u.)       :      0.00158
Magnitude (Debye)      :      0.00403

                             ****ORCA TERMINATED NORMALLY****
TOTAL RUN TIME: 0 days 0 hours 0 minutes 27 seconds 173 msec
