                         Program Version 4.0.0.2 - RELEASE -
|  1> ! WB97X-D3 6-31G(d) VerySlowConv
|  2> ! KDIIS NOSOSCF
|  3> %base "Scan_18"
|  4>
|  5> %scf
|  6> maxiter 999
|  7> end
|  8>
|  9> * xyz 0 1
| 10> C          2.200445256199   -2.901374444345    0.266698022254
| 11> H          3.130748483615   -2.972658579884   -0.292994332070
| 12> C          1.302727872839   -1.029208123542   -0.266348776214
| 13> H          1.829419131550   -0.259072816904    0.293248146256
| 14> C         -0.767759680086   -0.869955906311    0.265290626458
| 15> H         -1.171739448816   -0.029029479025   -0.293706016476
| 16> C         -1.940985900094   -2.584208842222   -0.264012378391
| 17> H         -2.871784026979   -2.513285651212    0.293531999239
| 18> C         -1.042506813399   -4.457469163999    0.264483473384
| 19> H         -1.569988399835   -5.227509548754   -0.293378643432
| 20> C          1.028540018575   -4.615502480148   -0.266114762350
| 21> H          1.431493506432   -5.456834963653    0.293302641341
| 22> **                         ****END OF INPUT****

CARTESIAN COORDINATES (ANGSTROEM)
---------------------------------
  C      2.200445   -2.901374    0.266698
  H      3.130748   -2.972659   -0.292994
  C      1.302728   -1.029208   -0.266349
  H      1.829419   -0.259073    0.293248
  C     -0.767760   -0.869956    0.265291
  H     -1.171739   -0.029029   -0.293706
  C     -1.940986   -2.584209   -0.264012
  H     -2.871784   -2.513286    0.293532
  C     -1.042507   -4.457469    0.264483
  H     -1.569988   -5.227510   -0.293379
  C      1.028540   -4.615502   -0.266115
  H      1.431494   -5.456835    0.293303

 Total Charge           Charge          ....    0
 Multiplicity           Mult            ....    1
 Number of Electrons    NEL             ....   42
 Basis Dimension        Dim             ....   96

ORBITAL ENERGIES
----------------

  NO   OCC          E(Eh)            E(eV)
   0   2.0000     -10.390748      -282.7466
   1   2.0000     -10.390706      -282.7455
   2   2.0000     -10.390657      -282.7442
   3   2.0000     -10.390638      -282.7436
   4   2.0000     -10.390573      -282.7419
   5   2.0000     -10.390543      -282.7411
   6   2.0000      -0.789104       -21.4726
   7   2.0000      -0.762634       -20.7523
   8   2.0000      -0.762584       -20.7510
   9   2.0000      -0.706947       -19.2370
  10   2.0000      -0.706896       -19.2356
  11   2.0000      -0.674107       -18.3434
  12   2.0000      -0.474604       -12.9146
  13   2.0000      -0.432977       -11.7819
  14   2.0000      -0.432918       -11.7803
  15   2.0000      -0.387662       -10.5488
  16   2.0000      -0.387597       -10.5470
  17   2.0000      -0.371921       -10.1205
  18   2.0000      -0.366993        -9.9864
  19   2.0000      -0.289455        -7.8765
  20   2.0000      -0.289390        -7.8747
  21   0.0000      -0.054781        -1.4907
  22   0.0000      -0.054527        -1.4837
  23   0.0000      -0.003303        -0.0899
  24   0.0000       0.066056         1.7975
  25   0.0000       0.066239         1.8025

MULLIKEN ATOMIC CHARGES
-----------------------
   0 C :   -0.188362
   1 H :    0.187507
   2 C :   -0.187808
   3 H :    0.187685
   4 C :   -0.186505
   5 H :    0.187429
   6 C :   -0.188495
   7 H :    0.187745
   8 C :   -0.187934
   9 H :    0.187861
  10 C :   -0.186482
  11 H :    0.187360
Sum of atomic charges:   -0.0000000

LOEWDIN ATOMIC CHARGES
----------------------
   0 C :   -0.134194
   1 H :    0.133704
   2 C :   -0.133876
   3 H :    0.133684
   4 C :   -0.133277
   5 H :    0.133750
   6 C :   -0.133958
   7 H :    0.133781
   8 C :   -0.133720
   9 H :    0.133731
  10 C :   -0.133345
  11 H :    0.133721

  Mayer bond orders larger than 0.1
B(  0-C ,  1-H ) :   0.8784 B(  0-C ,  2-C ) :   1.0160 B(  0-C , 10-C ) :   1.0157
B(  2-C ,  3-H ) :   0.8782 B(  2-C ,  4-C ) :   1.0160 B(  4-C ,  5-H ) :   0.8783
B(  4-C ,  6-C ) :   1.0166 B(  6-C ,  7-H ) :   0.8782 B(  6-C ,  8-C ) :   1.0172
B(  8-C ,  9-H ) :   0.8781 B(  8-C , 10-C ) :   1.0163 B( 10-C , 11-H ) :   0.8783

Dispersion correction           -0.003124752
FINAL SINGLE POINT ENERGY      -231.196414828581

DIPOLE MOMENT
-------------
                                X             Y             Z
Electronic contribution:     -0.00146      -0.00007      -0.00001
Nuclear contribution   :     -0.00200      -0.00058       0.00001
                        -----------------------------------------
Total Dipole Moment    :     -0.00346      -0.00066      -0.00001
                        -----------------------------------------
Magnitude (a.u.)       :      0.00353
Magnitude (Debye)      :      0.00896

                             ****ORCA TERMINATED NORMALLY****
TOTAL RUN TIME: 0 days 0 hours 0 minutes 24 seconds 372 msec
