                         Program Version 4.0.0.2 - RELEASE -
|  1> ! WB97X-D3 6-31G(d) VerySlowConv
|  2> ! KDIIS NOSOSCF
|  3> %base "Scan_19"
|  4>
|  5> %scf
|  6> maxiter 999
|  7> end
|  8>
|  9> * xyz 0 1
| 10> C          2.345358552356   -2.912800678282    0.223304077357
| 11> H          3.160638750083   -2.975073945145   -0.505247443402
| 12> C          1.384887528452   -0.909400326563   -0.222451011447
| 13> H          1.845475471216   -0.234014127547    0.506624523068
| 14> C         -0.831185773591   -0.739399614386    0.221200689408
| 15> H         -1.184297984035   -0.002852825855   -0.508913693637
| 16> C         -2.086663896904   -2.573693224134   -0.221489680139
| 17> H         -2.899393436663   -2.510693467220    0.510296378697
| 18> C         -1.124936528942   -4.577248336969    0.221833356901
| 19> H         -1.585906355474   -5.250985683935   -0.508566300245
| 20> C          1.090595080949   -4.745989714250   -0.222335079579
| 21> H          1.444038592552   -5.483958055715    0.505744183018
| 22> **                         ****END OF INPUT****

CARTESIAN COORDINATES (ANGSTROEM)
---------------------------------
  C      2.345359   -2.912801    0.223304
  H      3.160639   -2.975074   -0.505247
  C      1.384888   -0.909400   -0.222451
  H      1.845475   -0.234014    0.506625
  C     -0.831186   -0.739400    0.221201
  H     -1.184298   -0.002853   -0.508914
  C     -2.086664   -2.573693   -0.221490
  H     -2.899393   -2.510693    0.510296
  C     -1.124937   -4.577248    0.221833
  H     -1.585906   -5.250986   -0.508566
  C      1.090595   -4.745990   -0.222335
  H      1.444039   -5.483958    0.505744

 Total Charge           Charge          ....    0
 Multiplicity           Mult            ....    1
 Number of Electrons    NEL             ....   42
 Basis Dimension        Dim             ....   96

ORBITAL ENERGIES
----------------

  NO   OCC          E(Eh)            E(eV)
   0   2.0000     -10.393282      -282.8156
   1   2.0000     -10.393206      -282.8135
   2   2.0000     -10.393171      -282.8126
   3   2.0000     -10.393156      -282.8122
   4   2.0000     -10.393131      -282.8115
   5   2.0000     -10.393108      -282.8109
   6   2.0000      -0.776386       -21.1265
   7   2.0000      -0.754911       -20.5422
   8   2.0000      -0.754870       -20.5410
   9   2.0000      -0.708938       -19.2912
  10   2.0000      -0.708903       -19.2902
  11   2.0000      -0.682180       -18.5631
  12   2.0000      -0.450643       -12.2626
  13   2.0000      -0.421270       -11.4633
  14   2.0000      -0.421188       -11.4611
  15   2.0000      -0.391633       -10.6569
  16   2.0000      -0.391472       -10.6525
  17   2.0000      -0.372417       -10.1340
  18   2.0000      -0.359464        -9.7815
  19   2.0000      -0.278221        -7.5708
  20   2.0000      -0.278075        -7.5668
  21   0.0000      -0.058494        -1.5917
  22   0.0000      -0.058481        -1.5913
  23   0.0000      -0.023554        -0.6409
  24   0.0000       0.046050         1.2531
  25   0.0000       0.046271         1.2591

MULLIKEN ATOMIC CHARGES
-----------------------
   0 C :   -0.185715
   1 H :    0.184583
   2 C :   -0.184677
   3 H :    0.184550
   4 C :   -0.183000
   5 H :    0.184098
   6 C :   -0.185524
   7 H :    0.184585
   8 C :   -0.184597
   9 H :    0.184601
  10 C :   -0.183051
  11 H :    0.184147
Sum of atomic charges:   -0.0000000

LOEWDIN ATOMIC CHARGES
----------------------
   0 C :   -0.131854
   1 H :    0.130928
   2 C :   -0.131293
   3 H :    0.131270
   4 C :   -0.130460
   5 H :    0.131266
   6 C :   -0.131656
   7 H :    0.130945
   8 C :   -0.131227
   9 H :    0.131303
  10 C :   -0.130488
  11 H :    0.131267

  Mayer bond orders larger than 0.1
B(  0-C ,  1-H ) :   0.8846 B(  0-C ,  2-C ) :   0.8731 B(  0-C , 10-C ) :   0.8727
B(  2-C ,  3-H ) :   0.8848 B(  2-C ,  4-C ) :   0.8717 B(  4-C ,  5-H ) :   0.8850
B(  4-C ,  6-C ) :   0.8717 B(  6-C ,  7-H ) :   0.8846 B(  6-C ,  8-C ) :   0.8724
B(  8-C ,  9-H ) :   0.8848 B(  8-C , 10-C ) :   0.8720 B( 10-C , 11-H ) :   0.8850

Dispersion correction           -0.003375903
FINAL SINGLE POINT ENERGY      -231.073936795840

DIPOLE MOMENT
-------------
                                X             Y             Z
Electronic contribution:     -0.00204      -0.00091      -0.00005
Nuclear contribution   :      0.00216       0.00083      -0.00011
                        -----------------------------------------
Total Dipole Moment    :      0.00012      -0.00008      -0.00016
                        -----------------------------------------
Magnitude (a.u.)       :      0.00022
Magnitude (Debye)      :      0.00055

                             ****ORCA TERMINATED NORMALLY****
TOTAL RUN TIME: 0 days 0 hours 0 minutes 22 seconds 264 msec
