                         Program Version 4.0.0.2 - RELEASE -
|  1> ! WB97X-D3 6-31G(d) VerySlowConv
|  2> ! KDIIS NOSOSCF
|  3> %base "Scan_2"
|  4>
|  5> %scf
|  6> maxiter 999
|  7> end
|  8>
|  9> * xyz 0 1
| 10> C          1.271118758674   -2.830377542784   -0.000000000000
| 11> H          2.385243180463   -2.915670472659   -0.000000000000
| 12> C          0.776164694859   -1.798355209366   -0.000000000000
| 13> H          1.407092750697   -0.876141621668    0.000000000000
| 14> C         -0.365069902187   -1.710986815535   -0.000000000000
| 15> H         -0.848266266945   -0.703480303524   -0.000000000000
| 16> C         -1.011350425180   -2.655640790107   -0.000000000000
| 17> H         -2.125474846899   -2.570347859376   -0.000000000000
| 18> C         -0.516396360988   -3.687663124132   -0.000000000000
| 19> H         -1.147324416439   -4.609876712162   -0.000000000000
| 20> C          0.624838235314   -3.775031518017    0.000000000000
| 21> H          1.108034598631   -4.782538030671    0.000000000000
| 22> **                         ****END OF INPUT****

CARTESIAN COORDINATES (ANGSTROEM)
---------------------------------
  C      1.271119   -2.830378   -0.000000
  H      2.385243   -2.915670   -0.000000
  C      0.776165   -1.798355   -0.000000
  H      1.407093   -0.876142    0.000000
  C     -0.365070   -1.710987   -0.000000
  H     -0.848266   -0.703480   -0.000000
  C     -1.011350   -2.655641   -0.000000
  H     -2.125475   -2.570348   -0.000000
  C     -0.516396   -3.687663   -0.000000
  H     -1.147324   -4.609877   -0.000000
  C      0.624838   -3.775032    0.000000
  H      1.108035   -4.782538    0.000000

 Total Charge           Charge          ....    0
 Multiplicity           Mult            ....    1
 Number of Electrons    NEL             ....   42
 Basis Dimension        Dim             ....   96

ORBITAL ENERGIES
----------------

  NO   OCC          E(Eh)            E(eV)
   0   2.0000     -10.223070      -278.1839
   1   2.0000     -10.221266      -278.1348
   2   2.0000     -10.221070      -278.1295
   3   2.0000     -10.217397      -278.0295
   4   2.0000     -10.217198      -278.0241
   5   2.0000     -10.215434      -277.9761
   6   2.0000      -1.121939       -30.5295
   7   2.0000      -0.911270       -24.7969
   8   2.0000      -0.911188       -24.7947
   9   2.0000      -0.733984       -19.9727
  10   2.0000      -0.733742       -19.9661
  11   2.0000      -0.690224       -18.7819
  12   2.0000      -0.614600       -16.7241
  13   2.0000      -0.579152       -15.7595
  14   2.0000      -0.524721       -14.2784
  15   2.0000      -0.524569       -14.2742
  16   2.0000      -0.480857       -13.0848
  17   2.0000      -0.399019       -10.8579
  18   2.0000      -0.398620       -10.8470
  19   2.0000      -0.379571       -10.3287
  20   2.0000      -0.379313       -10.3216
  21   0.0000       0.145982         3.9724
  22   0.0000       0.150871         4.1054
  23   0.0000       0.151193         4.1142
  24   0.0000       0.221346         6.0231
  25   0.0000       0.221938         6.0392

MULLIKEN ATOMIC CHARGES
-----------------------
   0 C :   -0.137034
   1 H :    0.135389
   2 C :   -0.132246
   3 H :    0.133669
   4 C :   -0.132052
   5 H :    0.132274
   6 C :   -0.137033
   7 H :    0.135389
   8 C :   -0.132247
   9 H :    0.133669
  10 C :   -0.132051
  11 H :    0.132274
Sum of atomic charges:   -0.0000000

LOEWDIN ATOMIC CHARGES
----------------------
   0 C :   -0.125229
   1 H :    0.125145
   2 C :   -0.124985
   3 H :    0.125034
   4 C :   -0.124722
   5 H :    0.124758
   6 C :   -0.125229
   7 H :    0.125145
   8 C :   -0.124985
   9 H :    0.125034
  10 C :   -0.124722
  11 H :    0.124758

  Mayer bond orders larger than 0.1
B(  0-C ,  1-H ) :   0.9009 B(  0-C ,  2-C ) :   1.5404 B(  0-C , 10-C ) :   1.5432
B(  2-C ,  3-H ) :   0.9015 B(  2-C ,  4-C ) :   1.5420 B(  4-C ,  5-H ) :   0.9016
B(  4-C ,  6-C ) :   1.5432 B(  6-C ,  7-H ) :   0.9009 B(  6-C ,  8-C ) :   1.5404
B(  8-C ,  9-H ) :   0.9015 B(  8-C , 10-C ) :   1.5420 B( 10-C , 11-H ) :   0.9016

Dispersion correction           -0.001874386
FINAL SINGLE POINT ENERGY      -231.608475628419

DIPOLE MOMENT
-------------
                                X             Y             Z
Electronic contribution:      0.00000       0.00000       0.00000
Nuclear contribution   :     -0.00000      -0.00000       0.00000
                        -----------------------------------------
Total Dipole Moment    :      0.00000       0.00000       0.00000
                        -----------------------------------------
Magnitude (a.u.)       :      0.00000
Magnitude (Debye)      :      0.00000

                             ****ORCA TERMINATED NORMALLY****
TOTAL RUN TIME: 0 days 0 hours 1 minutes 52 seconds 689 msec
