                         Program Version 4.0.0.2 - RELEASE -
|  1> ! WB97X-D3 6-31G(d) VerySlowConv
|  2> ! KDIIS NOSOSCF
|  3> %base "Scan_20"
|  4>
|  5> %scf
|  6> maxiter 999
|  7> end
|  8>
|  9> * xyz 0 1
| 10> C          2.328638234750   -2.910849688922   -0.449078332524
| 11> H          2.135341741498   -2.899416627650   -1.529496599554
| 12> C          1.374835144599   -0.917350427387    0.451070381633
| 13> H          1.258792280272   -1.082978699795    1.531204215471
| 14> C         -0.825467276843   -0.752834216848   -0.457183425729
| 15> H         -0.742051773169   -0.939023991205   -1.535961137401
| 16> C         -2.064177206630   -2.573598210904    0.459327181308
| 17> H         -1.864136228036   -2.592054683241    1.538272116624
| 18> C         -1.113822367855   -4.558655998935   -0.458717743754
| 19> H         -1.004853878551   -4.395928886711   -1.537002302234
| 20> C          1.082398474450   -4.733547020649    0.453802475181
| 21> H          0.993112855515   -4.559871547753    1.533763170978
| 22> **                         ****END OF INPUT****

CARTESIAN COORDINATES (ANGSTROEM)
---------------------------------
  C      2.328638   -2.910850   -0.449078
  H      2.135342   -2.899417   -1.529497
  C      1.374835   -0.917350    0.451070
  H      1.258792   -1.082979    1.531204
  C     -0.825467   -0.752834   -0.457183
  H     -0.742052   -0.939024   -1.535961
  C     -2.064177   -2.573598    0.459327
  H     -1.864136   -2.592055    1.538272
  C     -1.113822   -4.558656   -0.458718
  H     -1.004854   -4.395929   -1.537002
  C      1.082398   -4.733547    0.453802
  H      0.993113   -4.559872    1.533763

 Total Charge           Charge          ....    0
 Multiplicity           Mult            ....    1
 Number of Electrons    NEL             ....   42
 Basis Dimension        Dim             ....   96

ORBITAL ENERGIES
----------------

  NO   OCC          E(Eh)            E(eV)
   0   2.0000     -10.450565      -284.3743
   1   2.0000     -10.444257      -284.2027
   2   2.0000     -10.408961      -283.2422
   3   2.0000     -10.400442      -283.0104
   4   2.0000     -10.392256      -282.7877
   5   2.0000     -10.390054      -282.7277
   6   2.0000      -0.791560       -21.5394
   7   2.0000      -0.778029       -21.1713
   8   2.0000      -0.750857       -20.4319
   9   2.0000      -0.733990       -19.9729
  10   2.0000      -0.712278       -19.3821
  11   2.0000      -0.707624       -19.2554
  12   2.0000      -0.454224       -12.3601
  13   2.0000      -0.449911       -12.2427
  14   2.0000      -0.430373       -11.7110
  15   2.0000      -0.421007       -11.4562
  16   2.0000      -0.415481       -11.3058
  17   2.0000      -0.358796        -9.7633
  18   2.0000      -0.308037        -8.3821
  19   2.0000      -0.299157        -8.1405
  20   2.0000      -0.259066        -7.0495
  21   0.0000      -0.105204        -2.8627
  22   0.0000      -0.103090        -2.8052
  23   0.0000      -0.092357        -2.5132
  24   0.0000       0.017118         0.4658
  25   0.0000       0.019817         0.5392

MULLIKEN ATOMIC CHARGES
-----------------------
   0 C :   -0.103591
   1 H :    0.207673
   2 C :   -0.220440
   3 H :    0.183500
   4 C :   -0.252322
   5 H :    0.179268
   6 C :   -0.101884
   7 H :    0.211153
   8 C :   -0.221819
   9 H :    0.190849
  10 C :   -0.250146
  11 H :    0.177759
Sum of atomic charges:   -0.0000000

LOEWDIN ATOMIC CHARGES
----------------------
   0 C :   -0.020636
   1 H :    0.143663
   2 C :   -0.174384
   3 H :    0.130167
   4 C :   -0.213294
   5 H :    0.128314
   6 C :   -0.020676
   7 H :    0.146002
   8 C :   -0.161493
   9 H :    0.134352
  10 C :   -0.219446
  11 H :    0.127432

  Mayer bond orders larger than 0.1
B(  0-C ,  1-H ) :   0.8836 B(  0-C ,  2-C ) :   0.5289 B(  0-C ,  4-C ) :   0.1524
B(  0-C ,  6-C ) :   0.1307 B(  0-C ,  8-C ) :   0.2621 B(  0-C , 10-C ) :   0.6353
B(  2-C ,  3-H ) :   0.8827 B(  2-C ,  4-C ) :   1.1095 B(  2-C ,  6-C ) :   0.2413
B(  4-C ,  5-H ) :   0.8813 B(  4-C ,  6-C ) :   0.6139 B(  6-C ,  7-H ) :   0.8824
B(  6-C ,  8-C ) :   0.5966 B(  6-C , 10-C ) :   0.1846 B(  8-C ,  9-H ) :   0.8796
B(  8-C , 10-C ) :   1.0769 B( 10-C , 11-H ) :   0.8817

Dispersion correction           -0.004668307
FINAL SINGLE POINT ENERGY      -230.895648353952

DIPOLE MOMENT
-------------
                                X             Y             Z
Electronic contribution:     -0.05819      -0.03481      -0.01622
Nuclear contribution   :     -0.00537      -0.01942       0.00135
                        -----------------------------------------
Total Dipole Moment    :     -0.06356      -0.05423      -0.01487
                        -----------------------------------------
Magnitude (a.u.)       :      0.08486
Magnitude (Debye)      :      0.21570

                             ****ORCA TERMINATED NORMALLY****
TOTAL RUN TIME: 0 days 0 hours 2 minutes 15 seconds 60 msec
