                         Program Version 4.0.0.2 - RELEASE -
|  1> ! WB97X-D3 6-31G(d) VerySlowConv
|  2> ! KDIIS NOSOSCF
|  3> %base "Scan_21"
|  4>
|  5> %scf
|  6> maxiter 999
|  7> end
|  8>
|  9> * xyz 0 1
| 10> C          2.489376601692   -2.923861334042   -0.399119877857
| 11> H          2.325929093212   -2.910889060965   -1.490130166702
| 12> C          1.464288512573   -0.788363325120    0.401973186002
| 13> H          1.368884039133   -0.924974446049    1.492568583406
| 14> C         -0.895140391720   -0.610118117510   -0.406903077782
| 15> H         -0.821903065413   -0.765109758821   -1.496773810654
| 16> C         -2.228761986136   -2.562255306165    0.407741264812
| 17> H         -2.055161401406   -2.574977187189    1.497262171693
| 18> C         -1.207406152344   -4.694748051002   -0.406144811798
| 19> H         -1.112134060499   -4.552823899538   -1.496157027506
| 20> C          1.151717669636   -4.878630459408    0.402481956455
| 21> H          1.078921141271   -4.729359054191    1.493201609930
| 22> **                         ****END OF INPUT****

CARTESIAN COORDINATES (ANGSTROEM)
---------------------------------
  C      2.489377   -2.923861   -0.399120
  H      2.325929   -2.910889   -1.490130
  C      1.464289   -0.788363    0.401973
  H      1.368884   -0.924974    1.492569
  C     -0.895140   -0.610118   -0.406903
  H     -0.821903   -0.765110   -1.496774
  C     -2.228762   -2.562255    0.407741
  H     -2.055161   -2.574977    1.497262
  C     -1.207406   -4.694748   -0.406145
  H     -1.112134   -4.552824   -1.496157
  C      1.151718   -4.878630    0.402482
  H      1.078921   -4.729359    1.493202

 Total Charge           Charge          ....    0
 Multiplicity           Mult            ....    1
 Number of Electrons    NEL             ....   42
 Basis Dimension        Dim             ....   96

ORBITAL ENERGIES
----------------

  NO   OCC          E(Eh)            E(eV)
   0   2.0000     -10.414859      -283.4027
   1   2.0000     -10.414212      -283.3851
   2   2.0000     -10.414082      -283.3816
   3   2.0000     -10.413990      -283.3791
   4   2.0000     -10.396953      -282.9155
   5   2.0000     -10.396762      -282.9103
   6   2.0000      -0.774791       -21.0831
   7   2.0000      -0.760608       -20.6972
   8   2.0000      -0.751792       -20.4573
   9   2.0000      -0.732170       -19.9234
  10   2.0000      -0.720828       -19.6147
  11   2.0000      -0.713416       -19.4130
  12   2.0000      -0.432712       -11.7747
  13   2.0000      -0.430821       -11.7232
  14   2.0000      -0.423601       -11.5268
  15   2.0000      -0.416946       -11.3457
  16   2.0000      -0.411429       -11.1956
  17   2.0000      -0.378780       -10.3071
  18   2.0000      -0.318408        -8.6643
  19   2.0000      -0.265105        -7.2139
  20   2.0000      -0.262861        -7.1528
  21   0.0000      -0.103656        -2.8206
  22   0.0000      -0.093398        -2.5415
  23   0.0000      -0.077727        -2.1151
  24   0.0000       0.010445         0.2842
  25   0.0000       0.012835         0.3492

MULLIKEN ATOMIC CHARGES
-----------------------
   0 C :   -0.156512
   1 H :    0.185990
   2 C :   -0.159239
   3 H :    0.185790
   4 C :   -0.229891
   5 H :    0.174884
   6 C :   -0.157973
   7 H :    0.185338
   8 C :   -0.159160
   9 H :    0.185594
  10 C :   -0.229922
  11 H :    0.175101
Sum of atomic charges:   -0.0000000

LOEWDIN ATOMIC CHARGES
----------------------
   0 C :   -0.099406
   1 H :    0.129108
   2 C :   -0.101692
   3 H :    0.128961
   4 C :   -0.178892
   5 H :    0.123251
   6 C :   -0.101566
   7 H :    0.128766
   8 C :   -0.102047
   9 H :    0.128895
  10 C :   -0.178725
  11 H :    0.123347

  Mayer bond orders larger than 0.1
B(  0-C ,  1-H ) :   0.8944 B(  0-C ,  2-C ) :   0.3499 B(  0-C ,  4-C ) :   0.1317
B(  0-C ,  6-C ) :   0.1543 B(  0-C ,  8-C ) :   0.1026 B(  0-C , 10-C ) :   0.7246
B(  2-C ,  3-H ) :   0.8944 B(  2-C ,  4-C ) :   0.7322 B(  2-C ,  6-C ) :   0.1017
B(  2-C ,  8-C ) :   0.1496 B(  2-C , 10-C ) :   0.1306 B(  4-C ,  5-H ) :   0.8904
B(  4-C ,  6-C ) :   0.7248 B(  4-C ,  8-C ) :   0.1323 B(  4-C , 10-C ) :   0.1054
B(  6-C ,  7-H ) :   0.8945 B(  6-C ,  8-C ) :   0.3509 B(  6-C , 10-C ) :   0.1331
B(  8-C ,  9-H ) :   0.8945 B(  8-C , 10-C ) :   0.7314 B( 10-C , 11-H ) :   0.8904

Dispersion correction           -0.004126140
FINAL SINGLE POINT ENERGY      -230.827896381063

DIPOLE MOMENT
-------------
                                X             Y             Z
Electronic contribution:      0.01137       0.00160      -0.00147
Nuclear contribution   :      0.00905      -0.00014      -0.00005
                        -----------------------------------------
Total Dipole Moment    :      0.02043       0.00147      -0.00152
                        -----------------------------------------
Magnitude (a.u.)       :      0.02054
Magnitude (Debye)      :      0.05220

                             ****ORCA TERMINATED NORMALLY****
TOTAL RUN TIME: 0 days 0 hours 2 minutes 6 seconds 462 msec
