                         Program Version 4.0.0.2 - RELEASE -
|  1> ! WB97X-D3 6-31G(d) VerySlowConv
|  2> ! KDIIS NOSOSCF
|  3> %base "Scan_22"
|  4>
|  5> %scf
|  6> maxiter 999
|  7> end
|  8>
|  9> * xyz 0 1
| 10> C          2.651013200932   -2.936049796081   -0.326838428344
| 11> H          2.544360844963   -2.927842246767   -1.428020421422
| 12> C          1.556004914350   -0.655012996498    0.329558888884
| 13> H          1.492460174918   -0.744798862968    1.430489826020
| 14> C         -0.965009246050   -0.463219922757   -0.334317622270
| 15> H         -0.916163514773   -0.567665015599   -1.434715129644
| 16> C         -2.390100132181   -2.549806396599    0.335319085401
| 17> H         -2.274773681424   -2.558318436406    1.435642318975
| 18> C         -1.298962521232   -4.829134584906   -0.333462154999
| 19> H         -1.235509790609   -4.734318046542   -1.433968681881
| 20> C          1.222016067536   -5.024114337323    0.329670445679
| 21> H          1.173273683569   -4.925829357553    1.430641873600
| 22> **                         ****END OF INPUT****

CARTESIAN COORDINATES (ANGSTROEM)
---------------------------------
  C      2.651013   -2.936050   -0.326838
  H      2.544361   -2.927842   -1.428020
  C      1.556005   -0.655013    0.329559
  H      1.492460   -0.744799    1.430490
  C     -0.965009   -0.463220   -0.334318
  H     -0.916164   -0.567665   -1.434715
  C     -2.390100   -2.549806    0.335319
  H     -2.274774   -2.558318    1.435642
  C     -1.298963   -4.829135   -0.333462
  H     -1.235510   -4.734318   -1.433969
  C      1.222016   -5.024114    0.329670
  H      1.173274   -4.925829    1.430642

 Total Charge           Charge          ....    0
 Multiplicity           Mult            ....    1
 Number of Electrons    NEL             ....   42
 Basis Dimension        Dim             ....   96

ORBITAL ENERGIES
----------------

  NO   OCC          E(Eh)            E(eV)
   0   2.0000     -10.399223      -282.9773
   1   2.0000     -10.399157      -282.9754
   2   2.0000     -10.399084      -282.9735
   3   2.0000     -10.398959      -282.9701
   4   2.0000     -10.393722      -282.8275
   5   2.0000     -10.393616      -282.8247
   6   2.0000      -0.759448       -20.6656
   7   2.0000      -0.748655       -20.3719
   8   2.0000      -0.745479       -20.2855
   9   2.0000      -0.725166       -19.7328
  10   2.0000      -0.722009       -19.6469
  11   2.0000      -0.712244       -19.3811
  12   2.0000      -0.416571       -11.3355
  13   2.0000      -0.415069       -11.2946
  14   2.0000      -0.412885       -11.2352
  15   2.0000      -0.407945       -11.1007
  16   2.0000      -0.405270       -11.0279
  17   2.0000      -0.384215       -10.4550
  18   2.0000      -0.321115        -8.7380
  19   2.0000      -0.250508        -6.8167
  20   2.0000      -0.249686        -6.7943
  21   0.0000      -0.081637        -2.2215
  22   0.0000      -0.079010        -2.1500
  23   0.0000      -0.065763        -1.7895
  24   0.0000       0.009731         0.2648
  25   0.0000       0.010354         0.2818

MULLIKEN ATOMIC CHARGES
-----------------------
   0 C :   -0.166341
   1 H :    0.172210
   2 C :   -0.167334
   3 H :    0.172025
   4 C :   -0.175023
   5 H :    0.164478
   6 C :   -0.166691
   7 H :    0.171909
   8 C :   -0.166457
   9 H :    0.171984
  10 C :   -0.175440
  11 H :    0.164680
Sum of atomic charges:   -0.0000000

LOEWDIN ATOMIC CHARGES
----------------------
   0 C :   -0.109985
   1 H :    0.120088
   2 C :   -0.111034
   3 H :    0.119976
   4 C :   -0.135181
   5 H :    0.116097
   6 C :   -0.110359
   7 H :    0.119916
   8 C :   -0.110474
   9 H :    0.119971
  10 C :   -0.135209
  11 H :    0.116195

  Mayer bond orders larger than 0.1
B(  0-C ,  1-H ) :   0.8993 B(  0-C ,  2-C ) :   0.5135 B(  0-C , 10-C ) :   0.6024
B(  2-C ,  3-H ) :   0.8995 B(  2-C ,  4-C ) :   0.6037 B(  4-C ,  5-H ) :   0.9010
B(  4-C ,  6-C ) :   0.6035 B(  6-C ,  7-H ) :   0.8993 B(  6-C ,  8-C ) :   0.5139
B(  8-C ,  9-H ) :   0.8994 B(  8-C , 10-C ) :   0.6041 B( 10-C , 11-H ) :   0.9010

Dispersion correction           -0.003612974
FINAL SINGLE POINT ENERGY      -230.780261368572

DIPOLE MOMENT
-------------
                                X             Y             Z
Electronic contribution:     -0.00203      -0.00197      -0.00093
Nuclear contribution   :      0.00752      -0.00124       0.00012
                        -----------------------------------------
Total Dipole Moment    :      0.00549      -0.00321      -0.00081
                        -----------------------------------------
Magnitude (a.u.)       :      0.00641
Magnitude (Debye)      :      0.01628

                             ****ORCA TERMINATED NORMALLY****
TOTAL RUN TIME: 0 days 0 hours 4 minutes 10 seconds 412 msec
