                         Program Version 4.0.0.2 - RELEASE -
|  1> ! WB97X-D3 6-31G(d) VerySlowConv
|  2> ! KDIIS NOSOSCF
|  3> %base "Scan_23"
|  4>
|  5> %scf
|  6> maxiter 999
|  7> end
|  8>
|  9> * xyz 0 1
| 10> C          2.808162904660   -2.947983502479   -0.226858154159
| 11> H          2.771668078180   -2.945141259819   -1.334643822492
| 12> C          1.645520287140   -0.526346219231    0.229611249882
| 13> H          1.622172021928   -0.555797352997    1.337338081132
| 14> C         -1.031893353497   -0.322392446035   -0.233198829035
| 15> H         -1.016149501817   -0.360336879897   -1.340778445854
| 16> C         -2.547982496368   -2.537896375407    0.232785124405
| 17> H         -2.503274153414   -2.541010742407    1.340218824075
| 18> C         -1.387088555721   -4.958800064784   -0.231582448607
| 19> H         -1.365621049368   -4.923408247953   -1.339154124184
| 20> C          1.290518217350   -5.164540940610    0.229258300369
| 21> H          1.272577600929   -5.132455968381    1.337004244467
| 22> **                         ****END OF INPUT****

CARTESIAN COORDINATES (ANGSTROEM)
---------------------------------
  C      2.808163   -2.947984   -0.226858
  H      2.771668   -2.945141   -1.334644
  C      1.645520   -0.526346    0.229611
  H      1.622172   -0.555797    1.337338
  C     -1.031893   -0.322392   -0.233199
  H     -1.016150   -0.360337   -1.340778
  C     -2.547982   -2.537896    0.232785
  H     -2.503274   -2.541011    1.340219
  C     -1.387089   -4.958800   -0.231582
  H     -1.365621   -4.923408   -1.339154
  C      1.290518   -5.164541    0.229258
  H      1.272578   -5.132456    1.337004

 Total Charge           Charge          ....    0
 Multiplicity           Mult            ....    1
 Number of Electrons    NEL             ....   42
 Basis Dimension        Dim             ....   96

ORBITAL ENERGIES
----------------

  NO   OCC          E(Eh)            E(eV)
   0   2.0000     -10.430536      -283.8293
   1   2.0000     -10.428800      -283.7821
   2   2.0000     -10.404007      -283.1074
   3   2.0000     -10.403628      -283.0971
   4   2.0000     -10.401468      -283.0383
   5   2.0000     -10.401378      -283.0359
   6   2.0000      -0.767113       -20.8742
   7   2.0000      -0.761340       -20.7171
   8   2.0000      -0.744333       -20.2543
   9   2.0000      -0.734829       -19.9957
  10   2.0000      -0.722878       -19.6705
  11   2.0000      -0.717205       -19.5161
  12   2.0000      -0.427314       -11.6278
  13   2.0000      -0.426173       -11.5968
  14   2.0000      -0.410260       -11.1637
  15   2.0000      -0.407899       -11.0995
  16   2.0000      -0.405958       -11.0467
  17   2.0000      -0.394236       -10.7277
  18   2.0000      -0.300210        -8.1691
  19   2.0000      -0.271593        -7.3904
  20   2.0000      -0.239023        -6.5042
  21   0.0000      -0.123607        -3.3635
  22   0.0000      -0.093187        -2.5358
  23   0.0000      -0.082228        -2.2375
  24   0.0000      -0.014488        -0.3942
  25   0.0000      -0.006737        -0.1833

MULLIKEN ATOMIC CHARGES
-----------------------
   0 C :   -0.113143
   1 H :    0.194396
   2 C :   -0.212887
   3 H :    0.177802
   4 C :   -0.221231
   5 H :    0.176968
   6 C :   -0.116300
   7 H :    0.193412
   8 C :   -0.211310
   9 H :    0.177901
  10 C :   -0.222708
  11 H :    0.177101
Sum of atomic charges:   -0.0000000

LOEWDIN ATOMIC CHARGES
----------------------
   0 C :   -0.057605
   1 H :    0.132962
   2 C :   -0.156011
   3 H :    0.122613
   4 C :   -0.161978
   5 H :    0.121979
   6 C :   -0.061368
   7 H :    0.132357
   8 C :   -0.154440
   9 H :    0.122673
  10 C :   -0.163217
  11 H :    0.122036

  Mayer bond orders larger than 0.1
B(  0-C ,  1-H ) :   0.8979 B(  0-C ,  2-C ) :   0.2992 B(  0-C ,  4-C ) :   0.1451
B(  0-C ,  6-C ) :   0.4684 B(  0-C ,  8-C ) :   0.1735 B(  0-C , 10-C ) :   0.3211
B(  2-C ,  3-H ) :   0.8996 B(  2-C ,  4-C ) :   0.8992 B(  2-C ,  6-C ) :   0.1692
B(  4-C ,  5-H ) :   0.8994 B(  4-C ,  6-C ) :   0.3200 B(  6-C ,  7-H ) :   0.8982
B(  6-C ,  8-C ) :   0.3009 B(  6-C , 10-C ) :   0.1434 B(  8-C ,  9-H ) :   0.8996
B(  8-C , 10-C ) :   0.8977 B( 10-C , 11-H ) :   0.8993

Dispersion correction           -0.003224188
FINAL SINGLE POINT ENERGY      -230.713780627756

DIPOLE MOMENT
-------------
                                X             Y             Z
Electronic contribution:      0.01461      -0.00339      -0.00397
Nuclear contribution   :      0.00358      -0.00017      -0.00003
                        -----------------------------------------
Total Dipole Moment    :      0.01819      -0.00355      -0.00400
                        -----------------------------------------
Magnitude (a.u.)       :      0.01896
Magnitude (Debye)      :      0.04820

                             ****ORCA TERMINATED NORMALLY****
TOTAL RUN TIME: 0 days 0 hours 2 minutes 53 seconds 629 msec
