                         Program Version 4.0.0.2 - RELEASE -
|  1> ! WB97X-D3 6-31G(d) VerySlowConv
|  2> ! KDIIS NOSOSCF
|  3> %base "Scan_24"
|  4>
|  5> %scf
|  6> maxiter 999
|  7> end
|  8>
|  9> * xyz 0 1
| 10> C          2.936615511942   -2.957928718666   -0.155224225510
| 11> H          2.937453241668   -2.958151793166   -1.264498336820
| 12> C          1.719343572350   -0.417642111699    0.157417071373
| 13> H          1.715678311477   -0.419637576060    1.266733742349
| 14> C         -1.088589365912   -0.202639885742   -0.161598220507
| 15> H         -1.086341396198   -0.209975733968   -1.270908146134
| 16> C         -2.676373861485   -2.527776679097    0.162802978773
| 17> H         -2.672267936421   -2.527892711776    1.272037935894
| 18> C         -1.460350307568   -5.067279612726   -0.160951216584
| 19> H         -1.458304970911   -5.062556647829   -1.270237758408
| 20> C          1.347532728571   -5.283767230217    0.157548291578
| 21> H          1.344214472486   -5.280861299054    1.266877883996
| 22> **                         ****END OF INPUT****

CARTESIAN COORDINATES (ANGSTROEM)
---------------------------------
  C      2.936616   -2.957929   -0.155224
  H      2.937453   -2.958152   -1.264498
  C      1.719344   -0.417642    0.157417
  H      1.715678   -0.419638    1.266734
  C     -1.088589   -0.202640   -0.161598
  H     -1.086341   -0.209976   -1.270908
  C     -2.676374   -2.527777    0.162803
  H     -2.672268   -2.527893    1.272038
  C     -1.460350   -5.067280   -0.160951
  H     -1.458305   -5.062557   -1.270238
  C      1.347533   -5.283767    0.157548
  H      1.344214   -5.280861    1.266878

 Total Charge           Charge          ....    0
 Multiplicity           Mult            ....    1
 Number of Electrons    NEL             ....   42
 Basis Dimension        Dim             ....   96

ORBITAL ENERGIES
----------------

  NO   OCC          E(Eh)            E(eV)
   0   2.0000     -10.402717      -283.0723
   1   2.0000     -10.402603      -283.0692
   2   2.0000     -10.402581      -283.0686
   3   2.0000     -10.402531      -283.0673
   4   2.0000     -10.402383      -283.0632
   5   2.0000     -10.402267      -283.0601
   6   2.0000      -0.753238       -20.4966
   7   2.0000      -0.745210       -20.2782
   8   2.0000      -0.745138       -20.2762
   9   2.0000      -0.727984       -19.8095
  10   2.0000      -0.727926       -19.8079
  11   2.0000      -0.718777       -19.5589
  12   2.0000      -0.408511       -11.1162
  13   2.0000      -0.408448       -11.1144
  14   2.0000      -0.407165       -11.0795
  15   2.0000      -0.406539       -11.0625
  16   2.0000      -0.406439       -11.0598
  17   2.0000      -0.397720       -10.8225
  18   2.0000      -0.313476        -8.5301
  19   2.0000      -0.254613        -6.9284
  20   2.0000      -0.254530        -6.9261
  21   0.0000      -0.074060        -2.0153
  22   0.0000      -0.073320        -1.9951
  23   0.0000      -0.067229        -1.8294
  24   0.0000      -0.011933        -0.3247
  25   0.0000      -0.011702        -0.3184

MULLIKEN ATOMIC CHARGES
-----------------------
   0 C :   -0.172725
   1 H :    0.172323
   2 C :   -0.172147
   3 H :    0.172401
   4 C :   -0.172361
   5 H :    0.172391
   6 C :   -0.172402
   7 H :    0.172218
   8 C :   -0.171914
   9 H :    0.172345
  10 C :   -0.172581
  11 H :    0.172453
Sum of atomic charges:   -0.0000000

LOEWDIN ATOMIC CHARGES
----------------------
   0 C :   -0.119927
   1 H :    0.119680
   2 C :   -0.119689
   3 H :    0.119814
   4 C :   -0.119763
   5 H :    0.119745
   6 C :   -0.119627
   7 H :    0.119620
   8 C :   -0.119462
   9 H :    0.119783
  10 C :   -0.119954
  11 H :    0.119779

  Mayer bond orders larger than 0.1
B(  0-C ,  1-H ) :   0.9037 B(  0-C ,  2-C ) :   0.5085 B(  0-C , 10-C ) :   0.5082
B(  2-C ,  3-H ) :   0.9039 B(  2-C ,  4-C ) :   0.5105 B(  4-C ,  5-H ) :   0.9038
B(  4-C ,  6-C ) :   0.5081 B(  6-C ,  7-H ) :   0.9037 B(  6-C ,  8-C ) :   0.5088
B(  8-C ,  9-H ) :   0.9039 B(  8-C , 10-C ) :   0.5104 B( 10-C , 11-H ) :   0.9038

Dispersion correction           -0.003008102
FINAL SINGLE POINT ENERGY      -230.726141098649

DIPOLE MOMENT
-------------
                                X             Y             Z
Electronic contribution:     -0.00296       0.00067      -0.00003
Nuclear contribution   :      0.00195      -0.00177       0.00001
                        -----------------------------------------
Total Dipole Moment    :     -0.00101      -0.00110      -0.00002
                        -----------------------------------------
Magnitude (a.u.)       :      0.00149
Magnitude (Debye)      :      0.00378

                             ****ORCA TERMINATED NORMALLY****
TOTAL RUN TIME: 0 days 0 hours 0 minutes 30 seconds 667 msec
