                         Program Version 4.0.0.2 - RELEASE -
|  1> ! WB97X-D3 6-31G(d) VerySlowConv
|  2> ! KDIIS NOSOSCF
|  3> %base "Scan_25"
|  4>
|  5> %scf
|  6> maxiter 999
|  7> end
|  8>
|  9> * xyz 0 1
| 10> C          3.056460829648   -2.967142455285   -0.099183019080
| 11> H          3.064127261533   -2.967434934249   -1.209121457090
| 12> C          1.786474578627   -0.321356395956    0.101836845165
| 13> H          1.790056908155   -0.313333812590    1.211740822324
| 14> C         -1.139382323246   -0.097909493467   -0.105164258848
| 15> H         -1.143537193157   -0.092327379393   -1.215108197976
| 16> C         -2.796930963177   -2.519074704926    0.104266535907
| 17> H         -2.798938566067   -2.518532123782    1.214327591668
| 18> C         -1.527495527772   -5.164569631287   -0.103665782932
| 19> H         -1.531984609599   -5.168234491621   -1.213639577019
| 20> C          1.398398952764   -5.388670662760    0.101920534759
| 21> H          1.401360652291   -5.397523914682    1.211789963121
| 22> **                         ****END OF INPUT****

CARTESIAN COORDINATES (ANGSTROEM)
---------------------------------
  C      3.056461   -2.967142   -0.099183
  H      3.064127   -2.967435   -1.209121
  C      1.786475   -0.321356    0.101837
  H      1.790057   -0.313334    1.211741
  C     -1.139382   -0.097909   -0.105164
  H     -1.143537   -0.092327   -1.215108
  C     -2.796931   -2.519075    0.104267
  H     -2.798939   -2.518532    1.214328
  C     -1.527496   -5.164570   -0.103666
  H     -1.531985   -5.168234   -1.213640
  C      1.398399   -5.388671    0.101921
  H      1.401361   -5.397524    1.211790

 Total Charge           Charge          ....    0
 Multiplicity           Mult            ....    1
 Number of Electrons    NEL             ....   42
 Basis Dimension        Dim             ....   96

ORBITAL ENERGIES
----------------

  NO   OCC          E(Eh)            E(eV)
   0   2.0000     -10.405031      -283.1353
   1   2.0000     -10.404963      -283.1334
   2   2.0000     -10.404900      -283.1317
   3   2.0000     -10.404847      -283.1303
   4   2.0000     -10.404558      -283.1224
   5   2.0000     -10.404517      -283.1213
   6   2.0000      -0.752391       -20.4736
   7   2.0000      -0.745664       -20.2906
   8   2.0000      -0.745531       -20.2869
   9   2.0000      -0.730844       -19.8873
  10   2.0000      -0.730683       -19.8829
  11   2.0000      -0.722762       -19.6673
  12   2.0000      -0.407936       -11.1005
  13   2.0000      -0.407769       -11.0960
  14   2.0000      -0.407480       -11.0881
  15   2.0000      -0.407378       -11.0853
  16   2.0000      -0.406297       -11.0559
  17   2.0000      -0.402072       -10.9409
  18   2.0000      -0.308655        -8.3989
  19   2.0000      -0.254897        -6.9361
  20   2.0000      -0.254781        -6.9329
  21   0.0000      -0.076785        -2.0894
  22   0.0000      -0.076151        -2.0722
  23   0.0000      -0.064424        -1.7531
  24   0.0000      -0.020282        -0.5519
  25   0.0000      -0.020102        -0.5470

MULLIKEN ATOMIC CHARGES
-----------------------
   0 C :   -0.173279
   1 H :    0.172919
   2 C :   -0.173272
   3 H :    0.173082
   4 C :   -0.172597
   5 H :    0.173096
   6 C :   -0.173249
   7 H :    0.172860
   8 C :   -0.173175
   9 H :    0.173034
  10 C :   -0.172543
  11 H :    0.173123
Sum of atomic charges:    0.0000000

LOEWDIN ATOMIC CHARGES
----------------------
   0 C :   -0.120116
   1 H :    0.119817
   2 C :   -0.120164
   3 H :    0.119983
   4 C :   -0.119554
   5 H :    0.119991
   6 C :   -0.120113
   7 H :    0.119792
   8 C :   -0.120092
   9 H :    0.119955
  10 C :   -0.119496
  11 H :    0.119997

  Mayer bond orders larger than 0.1
B(  0-C ,  1-H ) :   0.9042 B(  0-C ,  2-C ) :   0.4896 B(  0-C , 10-C ) :   0.4896
B(  2-C ,  3-H ) :   0.9043 B(  2-C ,  4-C ) :   0.4919 B(  4-C ,  5-H ) :   0.9043
B(  4-C ,  6-C ) :   0.4896 B(  6-C ,  7-H ) :   0.9042 B(  6-C ,  8-C ) :   0.4895
B(  8-C ,  9-H ) :   0.9043 B(  8-C , 10-C ) :   0.4919 B( 10-C , 11-H ) :   0.9043

Dispersion correction           -0.002883383
FINAL SINGLE POINT ENERGY      -230.695756727674

DIPOLE MOMENT
-------------
                                X             Y             Z
Electronic contribution:     -0.00092      -0.00099       0.00003
Nuclear contribution   :      0.00308       0.00116      -0.00002
                        -----------------------------------------
Total Dipole Moment    :      0.00216       0.00016       0.00001
                        -----------------------------------------
Magnitude (a.u.)       :      0.00217
Magnitude (Debye)      :      0.00551

                             ****ORCA TERMINATED NORMALLY****
TOTAL RUN TIME: 0 days 0 hours 0 minutes 17 seconds 91 msec
