                         Program Version 4.0.0.2 - RELEASE -
|  1> ! WB97X-D3 6-31G(d) VerySlowConv
|  2> ! KDIIS NOSOSCF
|  3> %base "Scan_26"
|  4>
|  5> %scf
|  6> maxiter 999
|  7> end
|  8>
|  9> * xyz 0 1
| 10> C          3.159999758954   -2.975025889125   -0.111126489652
| 11> H          3.127779082062   -2.972508458991   -1.221937532603
| 12> C          1.845503609796   -0.234696669345    0.113565110039
| 13> H          1.825252212416   -0.261066966480    1.224339524926
| 14> C         -1.184481164832   -0.002909231755   -0.117217765881
| 15> H         -1.170403535244   -0.035181005389   -1.227925319026
| 16> C         -2.899878643596   -2.510952704414    0.117118717098
| 17> H         -2.863704372295   -2.513425426421    1.227799414486
| 18> C         -1.586112344299   -5.250918887413   -0.116078096131
| 19> H         -1.567544912572   -5.221459070376   -1.226802051988
| 20> C          1.443887091678   -5.483447444351    0.113739204782
| 21> H          1.428313217934   -5.454518245941    1.224525283948
| 22> **                         ****END OF INPUT****

CARTESIAN COORDINATES (ANGSTROEM)
---------------------------------
  C      3.160000   -2.975026   -0.111126
  H      3.127779   -2.972508   -1.221938
  C      1.845504   -0.234697    0.113565
  H      1.825252   -0.261067    1.224340
  C     -1.184481   -0.002909   -0.117218
  H     -1.170404   -0.035181   -1.227925
  C     -2.899879   -2.510953    0.117119
  H     -2.863704   -2.513425    1.227799
  C     -1.586112   -5.250919   -0.116078
  H     -1.567545   -5.221459   -1.226802
  C      1.443887   -5.483447    0.113739
  H      1.428313   -5.454518    1.224525

 Total Charge           Charge          ....    0
 Multiplicity           Mult            ....    1
 Number of Electrons    NEL             ....   42
 Basis Dimension        Dim             ....   96

ORBITAL ENERGIES
----------------

  NO   OCC          E(Eh)            E(eV)
   0   2.0000     -10.406645      -283.1792
   1   2.0000     -10.406624      -283.1786
   2   2.0000     -10.406599      -283.1779
   3   2.0000     -10.406581      -283.1775
   4   2.0000     -10.406091      -283.1641
   5   2.0000     -10.406017      -283.1621
   6   2.0000      -0.751628       -20.4528
   7   2.0000      -0.746033       -20.3006
   8   2.0000      -0.745864       -20.2960
   9   2.0000      -0.733528       -19.9603
  10   2.0000      -0.733355       -19.9556
  11   2.0000      -0.726713       -19.7749
  12   2.0000      -0.408318       -11.1109
  13   2.0000      -0.408187       -11.1073
  14   2.0000      -0.408039       -11.1033
  15   2.0000      -0.407881       -11.0990
  16   2.0000      -0.406861       -11.0713
  17   2.0000      -0.403951       -10.9921
  18   2.0000      -0.302892        -8.2421
  19   2.0000      -0.253182        -6.8894
  20   2.0000      -0.253048        -6.8858
  21   0.0000      -0.079780        -2.1709
  22   0.0000      -0.078821        -2.1448
  23   0.0000      -0.062269        -1.6944
  24   0.0000      -0.026676        -0.7259
  25   0.0000      -0.026377        -0.7177

MULLIKEN ATOMIC CHARGES
-----------------------
   0 C :   -0.171834
   1 H :    0.171137
   2 C :   -0.171249
   3 H :    0.171313
   4 C :   -0.170696
   5 H :    0.171361
   6 C :   -0.171868
   7 H :    0.171105
   8 C :   -0.171226
   9 H :    0.171305
  10 C :   -0.170727
  11 H :    0.171380
Sum of atomic charges:   -0.0000000

LOEWDIN ATOMIC CHARGES
----------------------
   0 C :   -0.119477
   1 H :    0.118879
   2 C :   -0.119031
   3 H :    0.119077
   4 C :   -0.118513
   5 H :    0.119092
   6 C :   -0.119517
   7 H :    0.118868
   8 C :   -0.119013
   9 H :    0.119077
  10 C :   -0.118538
  11 H :    0.119098

  Mayer bond orders larger than 0.1
B(  0-C ,  1-H ) :   0.9046 B(  0-C ,  2-C ) :   0.4773 B(  0-C , 10-C ) :   0.4777
B(  2-C ,  3-H ) :   0.9046 B(  2-C ,  4-C ) :   0.4808 B(  4-C ,  5-H ) :   0.9046
B(  4-C ,  6-C ) :   0.4777 B(  6-C ,  7-H ) :   0.9045 B(  6-C ,  8-C ) :   0.4773
B(  8-C ,  9-H ) :   0.9046 B(  8-C , 10-C ) :   0.4809 B( 10-C , 11-H ) :   0.9046

Dispersion correction           -0.002810400
FINAL SINGLE POINT ENERGY      -230.664001980673

DIPOLE MOMENT
-------------
                                X             Y             Z
Electronic contribution:      0.00001       0.00006      -0.00004
Nuclear contribution   :      0.00067      -0.00018      -0.00000
                        -----------------------------------------
Total Dipole Moment    :      0.00068      -0.00012      -0.00004
                        -----------------------------------------
Magnitude (a.u.)       :      0.00069
Magnitude (Debye)      :      0.00176

                             ****ORCA TERMINATED NORMALLY****
TOTAL RUN TIME: 0 days 0 hours 0 minutes 16 seconds 270 msec
