                         Program Version 4.0.0.2 - RELEASE -
|  1> ! WB97X-D3 6-31G(d) VerySlowConv
|  2> ! KDIIS NOSOSCF
|  3> %base "Scan_27"
|  4>
|  5> %scf
|  6> maxiter 999
|  7> end
|  8>
|  9> * xyz 0 1
| 10> C          3.273194123063   -2.983791020759    0.019435518994
| 11> H          3.301363611047   -2.985859700096   -1.091205957920
| 12> C          1.910219415867   -0.140920136503   -0.017184269945
| 13> H          1.923464171384   -0.117188946610    1.093488846711
| 14> C         -1.233315645613    0.100224400810    0.013793265533
| 15> H         -1.245971305408    0.122388698368   -1.096936672536
| 16> C         -3.012858781578   -2.502338670077   -0.013957341686
| 17> H         -3.038577508790   -2.499997670025    1.096786276121
| 18> C         -1.649853471903   -5.345268755745    0.014898207598
| 19> H         -1.666135786373   -5.365665604833   -1.095818112383
| 20> C          1.493680034026   -5.586280804252   -0.016986118947
| 21> H          1.503401144278   -5.611411790281    1.093686358458
| 22> **                         ****END OF INPUT****

CARTESIAN COORDINATES (ANGSTROEM)
---------------------------------
  C      3.273194   -2.983791    0.019436
  H      3.301364   -2.985860   -1.091206
  C      1.910219   -0.140920   -0.017184
  H      1.923464   -0.117189    1.093489
  C     -1.233316    0.100224    0.013793
  H     -1.245971    0.122389   -1.096937
  C     -3.012859   -2.502339   -0.013957
  H     -3.038578   -2.499998    1.096786
  C     -1.649853   -5.345269    0.014898
  H     -1.666136   -5.365666   -1.095818
  C      1.493680   -5.586281   -0.016986
  H      1.503401   -5.611412    1.093686

 Total Charge           Charge          ....    0
 Multiplicity           Mult            ....    1
 Number of Electrons    NEL             ....   42
 Basis Dimension        Dim             ....   96

ORBITAL ENERGIES
----------------

  NO   OCC          E(Eh)            E(eV)
   0   2.0000     -10.408231      -283.2224
   1   2.0000     -10.408230      -283.2223
   2   2.0000     -10.408201      -283.2215
   3   2.0000     -10.408193      -283.2213
   4   2.0000     -10.407846      -283.2119
   5   2.0000     -10.407815      -283.2110
   6   2.0000      -0.751663       -20.4538
   7   2.0000      -0.746735       -20.3197
   8   2.0000      -0.746622       -20.3166
   9   2.0000      -0.735569       -20.0159
  10   2.0000      -0.735462       -20.0129
  11   2.0000      -0.729452       -19.8494
  12   2.0000      -0.409525       -11.1437
  13   2.0000      -0.409400       -11.1403
  14   2.0000      -0.408097       -11.1049
  15   2.0000      -0.407906       -11.0997
  16   2.0000      -0.407782       -11.0963
  17   2.0000      -0.406116       -11.0510
  18   2.0000      -0.299264        -8.1434
  19   2.0000      -0.253148        -6.8885
  20   2.0000      -0.253065        -6.8863
  21   0.0000      -0.083306        -2.2669
  22   0.0000      -0.082819        -2.2536
  23   0.0000      -0.060123        -1.6360
  24   0.0000      -0.031706        -0.8628
  25   0.0000      -0.031562        -0.8588

MULLIKEN ATOMIC CHARGES
-----------------------
   0 C :   -0.173989
   1 H :    0.173665
   2 C :   -0.173616
   3 H :    0.173871
   4 C :   -0.173773
   5 H :    0.173888
   6 C :   -0.174009
   7 H :    0.173584
   8 C :   -0.173601
   9 H :    0.173838
  10 C :   -0.173791
  11 H :    0.173934
Sum of atomic charges:   -0.0000000

LOEWDIN ATOMIC CHARGES
----------------------
   0 C :   -0.120293
   1 H :    0.119981
   2 C :   -0.119949
   3 H :    0.120173
   4 C :   -0.120017
   5 H :    0.120139
   6 C :   -0.120329
   7 H :    0.119941
   8 C :   -0.119942
   9 H :    0.120158
  10 C :   -0.120024
  11 H :    0.120161

  Mayer bond orders larger than 0.1
B(  0-C ,  1-H ) :   0.9042 B(  0-C ,  2-C ) :   0.4682 B(  0-C , 10-C ) :   0.4676
B(  2-C ,  3-H ) :   0.9042 B(  2-C ,  4-C ) :   0.4693 B(  4-C ,  5-H ) :   0.9042
B(  4-C ,  6-C ) :   0.4678 B(  6-C ,  7-H ) :   0.9042 B(  6-C ,  8-C ) :   0.4681
B(  8-C ,  9-H ) :   0.9042 B(  8-C , 10-C ) :   0.4694 B( 10-C , 11-H ) :   0.9042

Dispersion correction           -0.002792554
FINAL SINGLE POINT ENERGY      -230.639482165524

DIPOLE MOMENT
-------------
                                X             Y             Z
Electronic contribution:      0.00183      -0.00030      -0.00002
Nuclear contribution   :     -0.00305       0.00055       0.00000
                        -----------------------------------------
Total Dipole Moment    :     -0.00122       0.00025      -0.00002
                        -----------------------------------------
Magnitude (a.u.)       :      0.00125
Magnitude (Debye)      :      0.00317

                             ****ORCA TERMINATED NORMALLY****
TOTAL RUN TIME: 0 days 0 hours 0 minutes 23 seconds 792 msec
