                         Program Version 4.0.0.2 - RELEASE -
|  1> ! WB97X-D3 6-31G(d) VerySlowConv
|  2> ! KDIIS NOSOSCF
|  3> %base "Scan_28"
|  4>
|  5> %scf
|  6> maxiter 999
|  7> end
|  8>
|  9> * xyz 0 1
| 10> C          3.377079936170   -2.991776967787    0.028383302428
| 11> H          3.358451170937   -2.990181423459   -1.082816026718
| 12> C          1.969172779981   -0.055142717326   -0.025967086114
| 13> H          1.955591891826   -0.069672447453    1.085211531120
| 14> C         -1.278064525692    0.194045287534    0.022317213889
| 15> H         -1.271119379471    0.174094378521   -1.088838639463
| 16> C         -3.116287026420   -2.494432546167   -0.022451824364
| 17> H         -3.095888125789   -2.495584311721    1.088717660376
| 18> C         -1.708316976572   -5.431180493854    0.023488074792
| 19> H         -1.698881641927   -5.412880207996   -1.087678232321
| 20> C          1.538923381700   -5.680125841488   -0.025770333798
| 21> H          1.527948515260   -5.663272708808    1.085404360172
| 22> **                         ****END OF INPUT****

CARTESIAN COORDINATES (ANGSTROEM)
---------------------------------
  C      3.377080   -2.991777    0.028383
  H      3.358451   -2.990181   -1.082816
  C      1.969173   -0.055143   -0.025967
  H      1.955592   -0.069672    1.085212
  C     -1.278065    0.194045    0.022317
  H     -1.271119    0.174094   -1.088839
  C     -3.116287   -2.494433   -0.022452
  H     -3.095888   -2.495584    1.088718
  C     -1.708317   -5.431180    0.023488
  H     -1.698882   -5.412880   -1.087678
  C      1.538923   -5.680126   -0.025770
  H      1.527949   -5.663273    1.085404

 Total Charge           Charge          ....    0
 Multiplicity           Mult            ....    1
 Number of Electrons    NEL             ....   42
 Basis Dimension        Dim             ....   96

ORBITAL ENERGIES
----------------

  NO   OCC          E(Eh)            E(eV)
   0   2.0000     -10.409456      -283.2557
   1   2.0000     -10.409433      -283.2551
   2   2.0000     -10.409389      -283.2539
   3   2.0000     -10.409372      -283.2534
   4   2.0000     -10.408972      -283.2425
   5   2.0000     -10.408946      -283.2418
   6   2.0000      -0.751899       -20.4602
   7   2.0000      -0.747689       -20.3457
   8   2.0000      -0.747543       -20.3417
   9   2.0000      -0.738050       -20.0834
  10   2.0000      -0.737908       -20.0795
  11   2.0000      -0.732765       -19.9395
  12   2.0000      -0.410627       -11.1737
  13   2.0000      -0.410467       -11.1694
  14   2.0000      -0.409962       -11.1556
  15   2.0000      -0.408636       -11.1196
  16   2.0000      -0.408507       -11.1161
  17   2.0000      -0.406832       -11.0705
  18   2.0000      -0.294662        -8.0182
  19   2.0000      -0.251417        -6.8414
  20   2.0000      -0.251308        -6.8384
  21   0.0000      -0.086924        -2.3653
  22   0.0000      -0.086401        -2.3511
  23   0.0000      -0.058714        -1.5977
  24   0.0000      -0.035718        -0.9719
  25   0.0000      -0.035576        -0.9681

MULLIKEN ATOMIC CHARGES
-----------------------
   0 C :   -0.173091
   1 H :    0.172647
   2 C :   -0.172722
   3 H :    0.172848
   4 C :   -0.172418
   5 H :    0.172812
   6 C :   -0.173185
   7 H :    0.172571
   8 C :   -0.172740
   9 H :    0.172822
  10 C :   -0.172396
  11 H :    0.172852
Sum of atomic charges:   -0.0000000

LOEWDIN ATOMIC CHARGES
----------------------
   0 C :   -0.119717
   1 H :    0.119284
   2 C :   -0.119369
   3 H :    0.119483
   4 C :   -0.119062
   5 H :    0.119445
   6 C :   -0.119821
   7 H :    0.119243
   8 C :   -0.119391
   9 H :    0.119470
  10 C :   -0.119033
  11 H :    0.119466

  Mayer bond orders larger than 0.1
B(  0-C ,  1-H ) :   0.9041 B(  0-C ,  2-C ) :   0.4615 B(  0-C , 10-C ) :   0.4611
B(  2-C ,  3-H ) :   0.9041 B(  2-C ,  4-C ) :   0.4629 B(  4-C ,  5-H ) :   0.9042
B(  4-C ,  6-C ) :   0.4612 B(  6-C ,  7-H ) :   0.9041 B(  6-C ,  8-C ) :   0.4614
B(  8-C ,  9-H ) :   0.9042 B(  8-C , 10-C ) :   0.4630 B( 10-C , 11-H ) :   0.9042

Dispersion correction           -0.002791826
FINAL SINGLE POINT ENERGY      -230.612470041689

DIPOLE MOMENT
-------------
                                X             Y             Z
Electronic contribution:      0.00338      -0.00055      -0.00003
Nuclear contribution   :     -0.00554       0.00097       0.00000
                        -----------------------------------------
Total Dipole Moment    :     -0.00217       0.00042      -0.00003
                        -----------------------------------------
Magnitude (a.u.)       :      0.00221
Magnitude (Debye)      :      0.00561

                             ****ORCA TERMINATED NORMALLY****
TOTAL RUN TIME: 0 days 0 hours 0 minutes 22 seconds 964 msec
