                         Program Version 4.0.0.2 - RELEASE -
|  1> ! WB97X-D3 6-31G(d) VerySlowConv
|  2> ! KDIIS NOSOSCF
|  3> %base "Scan_29"
|  4>
|  5> %scf
|  6> maxiter 999
|  7> end
|  8>
|  9> * xyz 0 1
| 10> C          3.478985941783   -2.999665418242    0.067220223782
| 11> H          3.474350570207   -2.998943900824   -1.043955879346
| 12> C          2.027240161179    0.028638615476   -0.064541091133
| 13> H          2.020397943161    0.026950799049    1.046625768482
| 14> C         -1.321451494650    0.285917171069    0.060463661494
| 15> H         -1.322351764546    0.278678605416   -1.050705028719
| 16> C         -3.217006112669   -2.486771119092   -0.060485384246
| 17> H         -3.211991025444   -2.486583386027    1.050698249879
| 18> C         -1.765064107709   -5.515381996454    0.061725261024
| 19> H         -1.765516708136   -5.508341953783   -1.049443367919
| 20> C          1.583635958529   -5.772007474310   -0.064383758729
| 21> H          1.577380638294   -5.768599942283    1.046781345429
| 22> **                         ****END OF INPUT****

CARTESIAN COORDINATES (ANGSTROEM)
---------------------------------
  C      3.478986   -2.999665    0.067220
  H      3.474351   -2.998944   -1.043956
  C      2.027240    0.028639   -0.064541
  H      2.020398    0.026951    1.046626
  C     -1.321451    0.285917    0.060464
  H     -1.322352    0.278679   -1.050705
  C     -3.217006   -2.486771   -0.060485
  H     -3.211991   -2.486583    1.050698
  C     -1.765064   -5.515382    0.061725
  H     -1.765517   -5.508342   -1.049443
  C      1.583636   -5.772007   -0.064384
  H      1.577381   -5.768600    1.046781

 Total Charge           Charge          ....    0
 Multiplicity           Mult            ....    1
 Number of Electrons    NEL             ....   42
 Basis Dimension        Dim             ....   96

ORBITAL ENERGIES
----------------

  NO   OCC          E(Eh)            E(eV)
   0   2.0000     -10.409479      -283.2563
   1   2.0000     -10.409465      -283.2559
   2   2.0000     -10.409382      -283.2537
   3   2.0000     -10.409366      -283.2533
   4   2.0000     -10.408824      -283.2385
   5   2.0000     -10.408802      -283.2379
   6   2.0000      -0.751224       -20.4419
   7   2.0000      -0.747662       -20.3449
   8   2.0000      -0.747472       -20.3398
   9   2.0000      -0.739391       -20.1199
  10   2.0000      -0.739211       -20.1149
  11   2.0000      -0.734850       -19.9963
  12   2.0000      -0.410654       -11.1745
  13   2.0000      -0.410462       -11.1692
  14   2.0000      -0.410413       -11.1679
  15   2.0000      -0.408745       -11.1225
  16   2.0000      -0.408572       -11.1178
  17   2.0000      -0.407150       -11.0791
  18   2.0000      -0.289404        -7.8751
  19   2.0000      -0.248762        -6.7692
  20   2.0000      -0.248543        -6.7632
  21   0.0000      -0.089858        -2.4452
  22   0.0000      -0.089090        -2.4243
  23   0.0000      -0.056254        -1.5308
  24   0.0000      -0.037844        -1.0298
  25   0.0000      -0.037611        -1.0234

MULLIKEN ATOMIC CHARGES
-----------------------
   0 C :   -0.172586
   1 H :    0.172048
   2 C :   -0.171717
   3 H :    0.172144
   4 C :   -0.171852
   5 H :    0.172170
   6 C :   -0.172937
   7 H :    0.171938
   8 C :   -0.171811
   9 H :    0.172136
  10 C :   -0.171724
  11 H :    0.172193
Sum of atomic charges:   -0.0000000

LOEWDIN ATOMIC CHARGES
----------------------
   0 C :   -0.119345
   1 H :    0.118822
   2 C :   -0.118579
   3 H :    0.118986
   4 C :   -0.118678
   5 H :    0.118984
   6 C :   -0.119712
   7 H :    0.118762
   8 C :   -0.118669
   9 H :    0.118985
  10 C :   -0.118549
  11 H :    0.118992

  Mayer bond orders larger than 0.1
B(  0-C ,  1-H ) :   0.9039 B(  0-C ,  2-C ) :   0.4567 B(  0-C , 10-C ) :   0.4566
B(  2-C ,  3-H ) :   0.9040 B(  2-C ,  4-C ) :   0.4598 B(  4-C ,  5-H ) :   0.9040
B(  4-C ,  6-C ) :   0.4568 B(  6-C ,  7-H ) :   0.9039 B(  6-C ,  8-C ) :   0.4567
B(  8-C ,  9-H ) :   0.9040 B(  8-C , 10-C ) :   0.4599 B( 10-C , 11-H ) :   0.9040

Dispersion correction           -0.002773726
FINAL SINGLE POINT ENERGY      -230.588048841472

DIPOLE MOMENT
-------------
                                X             Y             Z
Electronic contribution:      0.00817      -0.00134      -0.00012
Nuclear contribution   :     -0.01218       0.00210       0.00000
                        -----------------------------------------
Total Dipole Moment    :     -0.00401       0.00076      -0.00012
                        -----------------------------------------
Magnitude (a.u.)       :      0.00408
Magnitude (Debye)      :      0.01037

                             ****ORCA TERMINATED NORMALLY****
TOTAL RUN TIME: 0 days 0 hours 0 minutes 33 seconds 501 msec
