                         Program Version 4.0.0.2 - RELEASE -
|  1> ! WB97X-D3 6-31G(d) VerySlowConv
|  2> ! KDIIS NOSOSCF
|  3> %base "Scan_3"
|  4>
|  5> %scf
|  6> maxiter 999
|  7> end
|  8>
|  9> * xyz 0 1
| 10> C          1.292595102696   -2.832021687976   -0.000000000000
| 11> H          2.401066071429   -2.916881808539    0.000000000000
| 12> C          0.788326737255   -1.780578218958   -0.000000000000
| 13> H          1.416053247573   -0.863044264712   -0.000000000000
| 14> C         -0.374384200194   -1.691565693557   -0.000000000000
| 15> H         -0.855128660098   -0.689171614437   -0.000000000000
| 16> C         -1.032826769373   -2.653996645396   -0.000000000000
| 17> H         -2.141297738078   -2.569136524602   -0.000000000000
| 18> C         -0.528558403936   -3.705440114337   -0.000000000000
| 19> H         -1.156284914087   -4.622974068708   -0.000000000000
| 20> C          0.634152533583   -3.794452639772   -0.000000000000
| 21> H          1.114896993229   -4.796846719005    0.000000000000
| 22> **                         ****END OF INPUT****

CARTESIAN COORDINATES (ANGSTROEM)
---------------------------------
  C      1.292595   -2.832022   -0.000000
  H      2.401066   -2.916882    0.000000
  C      0.788327   -1.780578   -0.000000
  H      1.416053   -0.863044   -0.000000
  C     -0.374384   -1.691566   -0.000000
  H     -0.855129   -0.689172   -0.000000
  C     -1.032827   -2.653997   -0.000000
  H     -2.141298   -2.569137   -0.000000
  C     -0.528558   -3.705440   -0.000000
  H     -1.156285   -4.622974   -0.000000
  C      0.634153   -3.794453   -0.000000
  H      1.114897   -4.796847    0.000000

 Total Charge           Charge          ....    0
 Multiplicity           Mult            ....    1
 Number of Electrons    NEL             ....   42
 Basis Dimension        Dim             ....   96

ORBITAL ENERGIES
----------------

  NO   OCC          E(Eh)            E(eV)
   0   2.0000     -10.226970      -278.2900
   1   2.0000     -10.225483      -278.2495
   2   2.0000     -10.225295      -278.2444
   3   2.0000     -10.222273      -278.1622
   4   2.0000     -10.222082      -278.1570
   5   2.0000     -10.220641      -278.1178
   6   2.0000      -1.105180       -30.0735
   7   2.0000      -0.907000       -24.6807
   8   2.0000      -0.906921       -24.6786
   9   2.0000      -0.731121       -19.8948
  10   2.0000      -0.730892       -19.8886
  11   2.0000      -0.683844       -18.6084
  12   2.0000      -0.607276       -16.5248
  13   2.0000      -0.566171       -15.4063
  14   2.0000      -0.524314       -14.2673
  15   2.0000      -0.524150       -14.2628
  16   2.0000      -0.489050       -13.3077
  17   2.0000      -0.403197       -10.9715
  18   2.0000      -0.402791       -10.9605
  19   2.0000      -0.374262       -10.1842
  20   2.0000      -0.374013       -10.1774
  21   0.0000       0.144111         3.9215
  22   0.0000       0.144419         3.9298
  23   0.0000       0.150945         4.1074
  24   0.0000       0.224234         6.1017
  25   0.0000       0.224819         6.1176

MULLIKEN ATOMIC CHARGES
-----------------------
   0 C :   -0.140956
   1 H :    0.139339
   2 C :   -0.136219
   3 H :    0.137687
   4 C :   -0.136130
   5 H :    0.136279
   6 C :   -0.140956
   7 H :    0.139339
   8 C :   -0.136219
   9 H :    0.137687
  10 C :   -0.136130
  11 H :    0.136279
Sum of atomic charges:    0.0000000

LOEWDIN ATOMIC CHARGES
----------------------
   0 C :   -0.126941
   1 H :    0.126842
   2 C :   -0.126705
   3 H :    0.126750
   4 C :   -0.126444
   5 H :    0.126499
   6 C :   -0.126941
   7 H :    0.126842
   8 C :   -0.126705
   9 H :    0.126750
  10 C :   -0.126444
  11 H :    0.126499

  Mayer bond orders larger than 0.1
B(  0-C ,  1-H ) :   0.9066 B(  0-C ,  2-C ) :   1.5310 B(  0-C , 10-C ) :   1.5336
B(  2-C ,  3-H ) :   0.9072 B(  2-C ,  4-C ) :   1.5322 B(  4-C ,  5-H ) :   0.9074
B(  4-C ,  6-C ) :   1.5336 B(  6-C ,  7-H ) :   0.9066 B(  6-C ,  8-C ) :   1.5310
B(  8-C ,  9-H ) :   0.9072 B(  8-C , 10-C ) :   1.5322 B( 10-C , 11-H ) :   0.9074

Dispersion correction           -0.001888902
FINAL SINGLE POINT ENERGY      -231.722486967018

DIPOLE MOMENT
-------------
                                X             Y             Z
Electronic contribution:      0.00000       0.00000      -0.00000
Nuclear contribution   :     -0.00000      -0.00000       0.00000
                        -----------------------------------------
Total Dipole Moment    :      0.00000       0.00000      -0.00000
                        -----------------------------------------
Magnitude (a.u.)       :      0.00000
Magnitude (Debye)      :      0.00000

                             ****ORCA TERMINATED NORMALLY****
TOTAL RUN TIME: 0 days 0 hours 0 minutes 54 seconds 534 msec
