                         Program Version 4.0.0.2 - RELEASE -
|  1> ! WB97X-D3 6-31G(d) VerySlowConv
|  2> ! KDIIS NOSOSCF
|  3> %base "Scan_30"
|  4>
|  5> %scf
|  6> maxiter 999
|  7> end
|  8>
|  9> * xyz 0 1
| 10> C          3.578303903287   -3.007394533366    0.113975496323
| 11> H          3.573907838734   -3.006375888760   -0.997591859044
| 12> C          2.083993290967    0.109721904242   -0.110870173187
| 13> H          2.075274604593    0.110498210037    1.000675345075
| 14> C         -1.363100110839    0.375096362575    0.106088176488
| 15> H         -1.367147978766    0.368134340385   -1.005464925482
| 16> C         -3.314160172725   -2.479441565676   -0.105882325735
| 17> H         -3.311748149067   -2.478737240685    1.005697440379
| 18> C         -1.819642373598   -5.597267882104    0.107480492164
| 19> H         -1.823590790830   -5.589769733681   -1.004067019674
| 20> C          1.627484035561   -5.861113506802   -0.110793137344
| 21> H          1.619035902684   -5.859460466170    1.000752490037
| 22> **                         ****END OF INPUT****

CARTESIAN COORDINATES (ANGSTROEM)
---------------------------------
  C      3.578304   -3.007395    0.113975
  H      3.573908   -3.006376   -0.997592
  C      2.083993    0.109722   -0.110870
  H      2.075275    0.110498    1.000675
  C     -1.363100    0.375096    0.106088
  H     -1.367148    0.368134   -1.005465
  C     -3.314160   -2.479442   -0.105882
  H     -3.311748   -2.478737    1.005697
  C     -1.819642   -5.597268    0.107480
  H     -1.823591   -5.589770   -1.004067
  C      1.627484   -5.861114   -0.110793
  H      1.619036   -5.859460    1.000752

 Total Charge           Charge          ....    0
 Multiplicity           Mult            ....    1
 Number of Electrons    NEL             ....   42
 Basis Dimension        Dim             ....   96

ORBITAL ENERGIES
----------------

  NO   OCC          E(Eh)            E(eV)
   0   2.0000     -10.409501      -283.2569
   1   2.0000     -10.409482      -283.2564
   2   2.0000     -10.409455      -283.2557
   3   2.0000     -10.409420      -283.2547
   4   2.0000     -10.409100      -283.2460
   5   2.0000     -10.408964      -283.2423
   6   2.0000      -0.750904       -20.4331
   7   2.0000      -0.747794       -20.3485
   8   2.0000      -0.747662       -20.3449
   9   2.0000      -0.740588       -20.1524
  10   2.0000      -0.740468       -20.1491
  11   2.0000      -0.736669       -20.0458
  12   2.0000      -0.411198       -11.1893
  13   2.0000      -0.410982       -11.1834
  14   2.0000      -0.410844       -11.1796
  15   2.0000      -0.408940       -11.1278
  16   2.0000      -0.408830       -11.1248
  17   2.0000      -0.407464       -11.0877
  18   2.0000      -0.284719        -7.7476
  19   2.0000      -0.246368        -6.7040
  20   2.0000      -0.246159        -6.6983
  21   0.0000      -0.093053        -2.5321
  22   0.0000      -0.092353        -2.5131
  23   0.0000      -0.054392        -1.4801
  24   0.0000      -0.044144        -1.2012
  25   0.0000      -0.039524        -1.0755

MULLIKEN ATOMIC CHARGES
-----------------------
   0 C :   -0.171399
   1 H :    0.171273
   2 C :   -0.171134
   3 H :    0.171339
   4 C :   -0.170988
   5 H :    0.171308
   6 C :   -0.172188
   7 H :    0.171129
   8 C :   -0.171236
   9 H :    0.171316
  10 C :   -0.170769
  11 H :    0.171348
Sum of atomic charges:   -0.0000000

LOEWDIN ATOMIC CHARGES
----------------------
   0 C :   -0.118418
   1 H :    0.118292
   2 C :   -0.118253
   3 H :    0.118446
   4 C :   -0.118098
   5 H :    0.118414
   6 C :   -0.119229
   7 H :    0.118213
   8 C :   -0.118352
   9 H :    0.118433
  10 C :   -0.117884
  11 H :    0.118437

  Mayer bond orders larger than 0.1
B(  0-C ,  1-H ) :   0.9038 B(  0-C ,  2-C ) :   0.4534 B(  0-C ,  6-C ) :   0.1012
B(  0-C , 10-C ) :   0.4532 B(  2-C ,  3-H ) :   0.9039 B(  2-C ,  4-C ) :   0.4563
B(  4-C ,  5-H ) :   0.9040 B(  4-C ,  6-C ) :   0.4534 B(  6-C ,  7-H ) :   0.9039
B(  6-C ,  8-C ) :   0.4534 B(  8-C ,  9-H ) :   0.9040 B(  8-C , 10-C ) :   0.4564
B( 10-C , 11-H ) :   0.9039

Dispersion correction           -0.002752042
FINAL SINGLE POINT ENERGY      -230.564980581214

DIPOLE MOMENT
-------------
                                X             Y             Z
Electronic contribution:      0.01594      -0.00276      -0.00005
Nuclear contribution   :     -0.02350       0.00406       0.00000
                        -----------------------------------------
Total Dipole Moment    :     -0.00756       0.00130      -0.00005
                        -----------------------------------------
Magnitude (a.u.)       :      0.00767
Magnitude (Debye)      :      0.01949

                             ****ORCA TERMINATED NORMALLY****
TOTAL RUN TIME: 0 days 0 hours 0 minutes 14 seconds 24 msec
