                         Program Version 4.0.0.2 - RELEASE -
|  1> ! WB97X-D3 6-31G(d) VerySlowConv
|  2> ! KDIIS NOSOSCF
|  3> %base "Scan_31"
|  4>
|  5> %scf
|  6> maxiter 999
|  7> end
|  8>
|  9> * xyz 0 1
| 10> C          3.676796595738   -3.015089577450    0.156368570553
| 11> H          3.662221114749   -3.012849105121   -0.955130059565
| 12> C          2.140350930257    0.189109075089   -0.152566973291
| 13> H          2.122615923189    0.185475013782    0.958882699748
| 14> C         -1.403451075669    0.462896724291    0.146631549420
| 15> H         -1.408052134593    0.446651129952   -0.964839677660
| 16> C         -3.408765295980   -2.472420665130   -0.146028203451
| 17> H         -3.399997576764   -2.471575381786    0.965536222059
| 18> C         -1.872621366110   -5.678148639795    0.148230175740
| 19> H         -1.876376419267   -5.660868130169   -0.963230140492
| 20> C          1.671293462904   -5.948595266352   -0.152649826821
| 21> H          1.654595841546   -5.940695177317    0.958795663761
| 22> **                         ****END OF INPUT****

CARTESIAN COORDINATES (ANGSTROEM)
---------------------------------
  C      3.676797   -3.015090    0.156369
  H      3.662221   -3.012849   -0.955130
  C      2.140351    0.189109   -0.152567
  H      2.122616    0.185475    0.958883
  C     -1.403451    0.462897    0.146632
  H     -1.408052    0.446651   -0.964840
  C     -3.408765   -2.472421   -0.146028
  H     -3.399998   -2.471575    0.965536
  C     -1.872621   -5.678149    0.148230
  H     -1.876376   -5.660868   -0.963230
  C      1.671293   -5.948595   -0.152650
  H      1.654596   -5.940695    0.958796

 Total Charge           Charge          ....    0
 Multiplicity           Mult            ....    1
 Number of Electrons    NEL             ....   42
 Basis Dimension        Dim             ....   96

ORBITAL ENERGIES
----------------

  NO   OCC          E(Eh)            E(eV)
   0   2.0000     -10.409278      -283.2509
   1   2.0000     -10.409276      -283.2508
   2   2.0000     -10.409239      -283.2498
   3   2.0000     -10.409224      -283.2494
   4   2.0000     -10.408957      -283.2421
   5   2.0000     -10.408808      -283.2381
   6   2.0000      -0.750742       -20.4287
   7   2.0000      -0.748027       -20.3548
   8   2.0000      -0.747914       -20.3518
   9   2.0000      -0.741727       -20.1834
  10   2.0000      -0.741625       -20.1806
  11   2.0000      -0.738322       -20.0908
  12   2.0000      -0.411751       -11.2043
  13   2.0000      -0.411262       -11.1910
  14   2.0000      -0.411138       -11.1876
  15   2.0000      -0.409174       -11.1342
  16   2.0000      -0.409074       -11.1315
  17   2.0000      -0.407789       -11.0965
  18   2.0000      -0.280176        -7.6240
  19   2.0000      -0.243879        -6.6363
  20   2.0000      -0.243710        -6.6317
  21   0.0000      -0.096090        -2.6147
  22   0.0000      -0.095627        -2.6021
  23   0.0000      -0.052659        -1.4329
  24   0.0000      -0.051606        -1.4043
  25   0.0000      -0.040598        -1.1047

MULLIKEN ATOMIC CHARGES
-----------------------
   0 C :   -0.170177
   1 H :    0.170421
   2 C :   -0.169823
   3 H :    0.170327
   4 C :   -0.170348
   5 H :    0.170232
   6 C :   -0.171401
   7 H :    0.170197
   8 C :   -0.170198
   9 H :    0.170280
  10 C :   -0.169824
  11 H :    0.170314
Sum of atomic charges:   -0.0000000

LOEWDIN ATOMIC CHARGES
----------------------
   0 C :   -0.117444
   1 H :    0.117670
   2 C :   -0.117267
   3 H :    0.117753
   4 C :   -0.117774
   5 H :    0.117669
   6 C :   -0.118701
   7 H :    0.117537
   8 C :   -0.117646
   9 H :    0.117727
  10 C :   -0.117237
  11 H :    0.117714

  Mayer bond orders larger than 0.1
B(  0-C ,  1-H ) :   0.9037 B(  0-C ,  2-C ) :   0.4516 B(  0-C ,  6-C ) :   0.1028
B(  0-C , 10-C ) :   0.4508 B(  2-C ,  3-H ) :   0.9039 B(  2-C ,  4-C ) :   0.4530
B(  2-C ,  8-C ) :   0.1011 B(  4-C ,  5-H ) :   0.9039 B(  4-C ,  6-C ) :   0.4508
B(  4-C , 10-C ) :   0.1018 B(  6-C ,  7-H ) :   0.9038 B(  6-C ,  8-C ) :   0.4516
B(  8-C ,  9-H ) :   0.9039 B(  8-C , 10-C ) :   0.4530 B( 10-C , 11-H ) :   0.9038

Dispersion correction           -0.002698886
FINAL SINGLE POINT ENERGY      -230.543265608107

DIPOLE MOMENT
-------------
                                X             Y             Z
Electronic contribution:      0.02857      -0.00475      -0.00014
Nuclear contribution   :     -0.04206       0.00726       0.00003
                        -----------------------------------------
Total Dipole Moment    :     -0.01349       0.00251      -0.00011
                        -----------------------------------------
Magnitude (a.u.)       :      0.01373
Magnitude (Debye)      :      0.03489

                             ****ORCA TERMINATED NORMALLY****
TOTAL RUN TIME: 0 days 0 hours 0 minutes 23 seconds 46 msec
