                         Program Version 4.0.0.2 - RELEASE -
|  1> ! WB97X-D3 6-31G(d) VerySlowConv
|  2> ! KDIIS NOSOSCF
|  3> %base "Scan_32"
|  4>
|  5> %scf
|  6> maxiter 999
|  7> end
|  8>
|  9> * xyz 0 1
| 10> C          3.775971004918   -3.022783960630    0.197052574083
| 11> H          3.754110304721   -3.019521413302   -0.914232294595
| 12> C          2.196910718218    0.266684059249   -0.191967382924
| 13> H          2.169927752591    0.264922162613    0.919210495199
| 14> C         -1.442299584812    0.550015357080    0.183893764532
| 15> H         -1.452388135856    0.527144125662   -0.927334090752
| 16> C         -3.500186357447   -2.465990121544   -0.182510421085
| 17> H         -3.491641612668   -2.463653854977    0.928961830879
| 18> C         -1.923612022744   -5.759040539606    0.185832510893
| 19> H         -1.933467919779   -5.733025367393   -0.925331148774
| 20> C          1.715965537778   -6.034444497971   -0.192367557987
| 21> H          1.689320315081   -6.026415949186    0.918791720529
| 22> **                         ****END OF INPUT****

CARTESIAN COORDINATES (ANGSTROEM)
---------------------------------
  C      3.775971   -3.022784    0.197053
  H      3.754110   -3.019521   -0.914232
  C      2.196911    0.266684   -0.191967
  H      2.169928    0.264922    0.919210
  C     -1.442300    0.550015    0.183894
  H     -1.452388    0.527144   -0.927334
  C     -3.500186   -2.465990   -0.182510
  H     -3.491642   -2.463654    0.928962
  C     -1.923612   -5.759041    0.185833
  H     -1.933468   -5.733025   -0.925331
  C      1.715966   -6.034444   -0.192368
  H      1.689320   -6.026416    0.918792

 Total Charge           Charge          ....    0
 Multiplicity           Mult            ....    1
 Number of Electrons    NEL             ....   42
 Basis Dimension        Dim             ....   96

ORBITAL ENERGIES
----------------

  NO   OCC          E(Eh)            E(eV)
   0   2.0000     -10.408627      -283.2331
   1   2.0000     -10.408620      -283.2329
   2   2.0000     -10.408583      -283.2319
   3   2.0000     -10.408545      -283.2309
   4   2.0000     -10.408358      -283.2258
   5   2.0000     -10.408071      -283.2180
   6   2.0000      -0.750362       -20.4184
   7   2.0000      -0.748001       -20.3541
   8   2.0000      -0.747893       -20.3512
   9   2.0000      -0.742502       -20.2045
  10   2.0000      -0.742412       -20.2021
  11   2.0000      -0.739551       -20.1242
  12   2.0000      -0.411817       -11.2061
  13   2.0000      -0.411215       -11.1897
  14   2.0000      -0.411096       -11.1865
  15   2.0000      -0.409226       -11.1356
  16   2.0000      -0.409132       -11.1330
  17   2.0000      -0.407969       -11.1014
  18   2.0000      -0.275507        -7.4969
  19   2.0000      -0.241159        -6.5623
  20   2.0000      -0.240923        -6.5558
  21   0.0000      -0.098963        -2.6929
  22   0.0000      -0.098398        -2.6775
  23   0.0000      -0.058173        -1.5830
  24   0.0000      -0.050781        -1.3818
  25   0.0000      -0.041045        -1.1169

MULLIKEN ATOMIC CHARGES
-----------------------
   0 C :   -0.168474
   1 H :    0.169301
   2 C :   -0.168474
   3 H :    0.169058
   4 C :   -0.169234
   5 H :    0.169028
   6 C :   -0.170767
   7 H :    0.168844
   8 C :   -0.168986
   9 H :    0.169048
  10 C :   -0.168449
  11 H :    0.169103
Sum of atomic charges:   -0.0000000

LOEWDIN ATOMIC CHARGES
----------------------
   0 C :   -0.116106
   1 H :    0.116906
   2 C :   -0.116346
   3 H :    0.116915
   4 C :   -0.117058
   5 H :    0.116862
   6 C :   -0.118498
   7 H :    0.116624
   8 C :   -0.116846
   9 H :    0.116910
  10 C :   -0.116266
  11 H :    0.116903

  Mayer bond orders larger than 0.1
B(  0-C ,  1-H ) :   0.9037 B(  0-C ,  2-C ) :   0.4490 B(  0-C ,  6-C ) :   0.1050
B(  0-C , 10-C ) :   0.4490 B(  2-C ,  3-H ) :   0.9038 B(  2-C ,  4-C ) :   0.4520
B(  2-C ,  8-C ) :   0.1027 B(  4-C ,  5-H ) :   0.9039 B(  4-C ,  6-C ) :   0.4485
B(  4-C , 10-C ) :   0.1032 B(  6-C ,  7-H ) :   0.9038 B(  6-C ,  8-C ) :   0.4496
B(  8-C ,  9-H ) :   0.9039 B(  8-C , 10-C ) :   0.4514 B( 10-C , 11-H ) :   0.9038

Dispersion correction           -0.002601465
FINAL SINGLE POINT ENERGY      -230.523037415397

DIPOLE MOMENT
-------------
                                X             Y             Z
Electronic contribution:      0.05120      -0.00856      -0.00034
Nuclear contribution   :     -0.07521       0.01299       0.00012
                        -----------------------------------------
Total Dipole Moment    :     -0.02400       0.00443      -0.00022
                        -----------------------------------------
Magnitude (a.u.)       :      0.02441
Magnitude (Debye)      :      0.06204

                             ****ORCA TERMINATED NORMALLY****
TOTAL RUN TIME: 0 days 0 hours 0 minutes 15 seconds 345 msec
