                         Program Version 4.0.0.2 - RELEASE -
|  1> ! WB97X-D3 6-31G(d) VerySlowConv
|  2> ! KDIIS NOSOSCF
|  3> %base "Scan_33"
|  4>
|  5> %scf
|  6> maxiter 999
|  7> end
|  8>
|  9> * xyz 0 1
| 10> C          3.878393882829   -3.030189373868    0.233585447004
| 11> H          3.842998902008   -3.026343672107   -0.877334626714
| 12> C          2.253895858867    0.342845043010   -0.226409098114
| 13> H          2.213497784257    0.343802113174    0.884350657836
| 14> C         -1.480569569424    0.638057652098    0.214772834374
| 15> H         -1.497477454711    0.603714553622   -0.896067369549
| 16> C         -3.588542860290   -2.460705285411   -0.212101371771
| 17> H         -3.580424703198   -2.454863832051    0.899351661026
| 18> C         -1.972933737250   -5.842070696263    0.217165189665
| 19> H         -1.992220517587   -5.800169199539   -0.893384160362
| 20> C          1.762566635028   -6.118687249276   -0.227284198783
| 21> H          1.719425779472   -6.111500053394    0.883355035388
| 22> **                         ****END OF INPUT****

CARTESIAN COORDINATES (ANGSTROEM)
---------------------------------
  C      3.878394   -3.030189    0.233585
  H      3.842999   -3.026344   -0.877335
  C      2.253896    0.342845   -0.226409
  H      2.213498    0.343802    0.884351
  C     -1.480570    0.638058    0.214773
  H     -1.497477    0.603715   -0.896067
  C     -3.588543   -2.460705   -0.212101
  H     -3.580425   -2.454864    0.899352
  C     -1.972934   -5.842071    0.217165
  H     -1.992221   -5.800169   -0.893384
  C      1.762567   -6.118687   -0.227284
  H      1.719426   -6.111500    0.883355

 Total Charge           Charge          ....    0
 Multiplicity           Mult            ....    1
 Number of Electrons    NEL             ....   42
 Basis Dimension        Dim             ....   96

ORBITAL ENERGIES
----------------

  NO   OCC          E(Eh)            E(eV)
   0   2.0000     -10.407765      -283.2097
   1   2.0000     -10.407710      -283.2082
   2   2.0000     -10.407668      -283.2070
   3   2.0000     -10.407659      -283.2068
   4   2.0000     -10.407636      -283.2062
   5   2.0000     -10.407065      -283.1906
   6   2.0000      -0.749895       -20.4057
   7   2.0000      -0.747835       -20.3496
   8   2.0000      -0.747741       -20.3471
   9   2.0000      -0.743032       -20.2189
  10   2.0000      -0.742957       -20.2169
  11   2.0000      -0.740473       -20.1493
  12   2.0000      -0.411645       -11.2014
  13   2.0000      -0.411013       -11.1842
  14   2.0000      -0.410904       -11.1813
  15   2.0000      -0.409181       -11.1344
  16   2.0000      -0.409106       -11.1323
  17   2.0000      -0.408060       -11.1039
  18   2.0000      -0.270930        -7.3724
  19   2.0000      -0.238350        -6.4858
  20   2.0000      -0.238115        -6.4794
  21   0.0000      -0.101537        -2.7630
  22   0.0000      -0.101040        -2.7494
  23   0.0000      -0.064000        -1.7415
  24   0.0000      -0.048955        -1.3321
  25   0.0000      -0.041077        -1.1178

MULLIKEN ATOMIC CHARGES
-----------------------
   0 C :   -0.166160
   1 H :    0.168071
   2 C :   -0.167136
   3 H :    0.167601
   4 C :   -0.167866
   5 H :    0.167631
   6 C :   -0.170123
   7 H :    0.167234
   8 C :   -0.167819
   9 H :    0.167671
  10 C :   -0.166789
  11 H :    0.167685
Sum of atomic charges:   -0.0000000

LOEWDIN ATOMIC CHARGES
----------------------
   0 C :   -0.114251
   1 H :    0.116122
   2 C :   -0.115525
   3 H :    0.115981
   4 C :   -0.116196
   5 H :    0.115970
   6 C :   -0.118436
   7 H :    0.115600
   8 C :   -0.116163
   9 H :    0.116022
  10 C :   -0.115122
  11 H :    0.115998

  Mayer bond orders larger than 0.1
B(  0-C ,  1-H ) :   0.9037 B(  0-C ,  2-C ) :   0.4471 B(  0-C ,  6-C ) :   0.1065
B(  0-C , 10-C ) :   0.4482 B(  2-C ,  3-H ) :   0.9039 B(  2-C ,  4-C ) :   0.4511
B(  2-C ,  8-C ) :   0.1041 B(  4-C ,  5-H ) :   0.9039 B(  4-C ,  6-C ) :   0.4466
B(  4-C , 10-C ) :   0.1046 B(  6-C ,  7-H ) :   0.9040 B(  6-C ,  8-C ) :   0.4487
B(  8-C ,  9-H ) :   0.9039 B(  8-C , 10-C ) :   0.4495 B( 10-C , 11-H ) :   0.9038

Dispersion correction           -0.002469615
FINAL SINGLE POINT ENERGY      -230.504173665698

DIPOLE MOMENT
-------------
                                X             Y             Z
Electronic contribution:      0.08663      -0.01432      -0.00066
Nuclear contribution   :     -0.12724       0.02198       0.00047
                        -----------------------------------------
Total Dipole Moment    :     -0.04061       0.00765      -0.00019
                        -----------------------------------------
Magnitude (a.u.)       :      0.04133
Magnitude (Debye)      :      0.10504

                             ****ORCA TERMINATED NORMALLY****
TOTAL RUN TIME: 0 days 0 hours 0 minutes 14 seconds 848 msec
