                         Program Version 4.0.0.2 - RELEASE -
|  1> ! WB97X-D3 6-31G(d) VerySlowConv
|  2> ! KDIIS NOSOSCF
|  3> %base "Scan_34"
|  4>
|  5> %scf
|  6> maxiter 999
|  7> end
|  8>
|  9> * xyz 0 1
| 10> C          3.997967882660   -3.032471221803    0.284995816870
| 11> H          3.967993410159   -3.041645035090   -0.826671554927
| 12> C          2.308878806324    0.409754207890   -0.270952979235
| 13> H          2.270015558630    0.463436571043    0.839332557722
| 14> C         -1.517382019770    0.727854901258    0.248301633577
| 15> H         -1.567439803565    0.708789189080   -0.862641644747
| 16> C         -3.656578714808   -2.465341533056   -0.240178188171
| 17> H         -3.708563184060   -2.433613220401    0.870555458782
| 18> C         -2.008815896552   -5.937435768875    0.250389307994
| 19> H         -2.093681023898   -5.882004735941   -0.857371130641
| 20> C          1.821938299546   -6.189302230695   -0.272035254658
| 21> H          1.744276685336   -6.244131123417    0.836275977435
| 22> **                         ****END OF INPUT****

CARTESIAN COORDINATES (ANGSTROEM)
---------------------------------
  C      3.997968   -3.032471    0.284996
  H      3.967993   -3.041645   -0.826672
  C      2.308879    0.409754   -0.270953
  H      2.270016    0.463437    0.839333
  C     -1.517382    0.727855    0.248302
  H     -1.567440    0.708789   -0.862642
  C     -3.656579   -2.465342   -0.240178
  H     -3.708563   -2.433613    0.870555
  C     -2.008816   -5.937436    0.250389
  H     -2.093681   -5.882005   -0.857371
  C      1.821938   -6.189302   -0.272035
  H      1.744277   -6.244131    0.836276

 Total Charge           Charge          ....    0
 Multiplicity           Mult            ....    1
 Number of Electrons    NEL             ....   42
 Basis Dimension        Dim             ....   96

ORBITAL ENERGIES
----------------

  NO   OCC          E(Eh)            E(eV)
   0   2.0000     -10.406574      -283.1773
   1   2.0000     -10.406260      -283.1687
   2   2.0000     -10.406178      -283.1665
   3   2.0000     -10.406137      -283.1654
   4   2.0000     -10.406094      -283.1642
   5   2.0000     -10.405085      -283.1368
   6   2.0000      -0.748525       -20.3684
   7   2.0000      -0.746737       -20.3198
   8   2.0000      -0.746657       -20.3176
   9   2.0000      -0.742583       -20.2067
  10   2.0000      -0.742526       -20.2052
  11   2.0000      -0.740370       -20.1465
  12   2.0000      -0.410644       -11.1742
  13   2.0000      -0.410096       -11.1593
  14   2.0000      -0.410012       -11.1570
  15   2.0000      -0.408552       -11.1173
  16   2.0000      -0.408510       -11.1161
  17   2.0000      -0.407578       -11.0907
  18   2.0000      -0.265839        -7.2338
  19   2.0000      -0.234963        -6.3937
  20   2.0000      -0.234731        -6.3873
  21   0.0000      -0.103388        -2.8133
  22   0.0000      -0.103002        -2.8028
  23   0.0000      -0.068727        -1.8702
  24   0.0000      -0.046682        -1.2703
  25   0.0000      -0.040239        -1.0949

MULLIKEN ATOMIC CHARGES
-----------------------
   0 C :   -0.161725
   1 H :    0.167248
   2 C :   -0.165720
   3 H :    0.165861
   4 C :   -0.166532
   5 H :    0.166150
   6 C :   -0.171099
   7 H :    0.165003
   8 C :   -0.166723
   9 H :    0.166438
  10 C :   -0.165072
  11 H :    0.166172
Sum of atomic charges:   -0.0000000

LOEWDIN ATOMIC CHARGES
----------------------
   0 C :   -0.110250
   1 H :    0.115690
   2 C :   -0.114892
   3 H :    0.115031
   4 C :   -0.115519
   5 H :    0.115147
   6 C :   -0.120427
   7 H :    0.114411
   8 C :   -0.115628
   9 H :    0.115352
  10 C :   -0.114103
  11 H :    0.115189

  Mayer bond orders larger than 0.1
B(  0-C ,  1-H ) :   0.9039 B(  0-C ,  2-C ) :   0.4486 B(  0-C ,  6-C ) :   0.1076
B(  0-C , 10-C ) :   0.4450 B(  2-C ,  3-H ) :   0.9042 B(  2-C ,  4-C ) :   0.4476
B(  2-C ,  8-C ) :   0.1054 B(  4-C ,  5-H ) :   0.9043 B(  4-C ,  6-C ) :   0.4483
B(  4-C , 10-C ) :   0.1057 B(  6-C ,  7-H ) :   0.9046 B(  6-C ,  8-C ) :   0.4453
B(  8-C ,  9-H ) :   0.9042 B(  8-C , 10-C ) :   0.4508 B( 10-C , 11-H ) :   0.9042

Dispersion correction           -0.002295761
FINAL SINGLE POINT ENERGY      -230.486788678577

DIPOLE MOMENT
-------------
                                X             Y             Z
Electronic contribution:      0.19668      -0.03202      -0.00082
Nuclear contribution   :     -0.28858       0.05000      -0.00090
                        -----------------------------------------
Total Dipole Moment    :     -0.09189       0.01799      -0.00172
                        -----------------------------------------
Magnitude (a.u.)       :      0.09365
Magnitude (Debye)      :      0.23805

                             ****ORCA TERMINATED NORMALLY****
TOTAL RUN TIME: 0 days 0 hours 0 minutes 40 seconds 146 msec
