                         Program Version 4.0.0.2 - RELEASE -
|  1> ! WB97X-D3 6-31G(d) VerySlowConv
|  2> ! KDIIS NOSOSCF
|  3> %base "Scan_35"
|  4>
|  5> %scf
|  6> maxiter 999
|  7> end
|  8>
|  9> * xyz 0 1
| 10> C          4.213687910952   -2.563032361994    0.385242595299
| 11> H          3.998575596811   -3.557582623577   -0.073033321370
| 12> C          1.955029873096    0.633369313195   -0.320941578097
| 13> H          2.689693861544    0.285413077490    0.427469621302
| 14> C         -1.998711842385    0.588583390948    0.097044689533
| 15> H         -1.173769524276    0.931864177767   -0.577963388725
| 16> C         -3.794240843925   -2.958119126440    0.017314320594
| 17> H         -3.743920901346   -1.932719364362    0.448118771767
| 18> C         -1.662256731086   -6.312189231649    0.100525100569
| 19> H         -2.505925314154   -5.621507499426   -0.136110226124
| 20> C          2.279054922975   -5.967893330008   -0.308100318159
| 21> H          1.301392991802   -6.442296421929   -0.059566266520
| 22> **                         ****END OF INPUT****

CARTESIAN COORDINATES (ANGSTROEM)
---------------------------------
  C      4.213688   -2.563032    0.385243
  H      3.998576   -3.557583   -0.073033
  C      1.955030    0.633369   -0.320942
  H      2.689694    0.285413    0.427470
  C     -1.998712    0.588583    0.097045
  H     -1.173770    0.931864   -0.577963
  C     -3.794241   -2.958119    0.017314
  H     -3.743921   -1.932719    0.448119
  C     -1.662257   -6.312189    0.100525
  H     -2.505925   -5.621507   -0.136110
  C      2.279055   -5.967893   -0.308100
  H      1.301393   -6.442296   -0.059566

 Total Charge           Charge          ....    0
 Multiplicity           Mult            ....    1
 Number of Electrons    NEL             ....   42
 Basis Dimension        Dim             ....   96

ORBITAL ENERGIES
----------------

  NO   OCC          E(Eh)            E(eV)
   0   2.0000     -10.398493      -282.9574
   1   2.0000     -10.396663      -282.9076
   2   2.0000     -10.396295      -282.8976
   3   2.0000     -10.396213      -282.8953
   4   2.0000     -10.396141      -282.8934
   5   2.0000     -10.395725      -282.8821
   6   2.0000      -0.743281       -20.2257
   7   2.0000      -0.741751       -20.1841
   8   2.0000      -0.740504       -20.1501
   9   2.0000      -0.737065       -20.0566
  10   2.0000      -0.735752       -20.0208
  11   2.0000      -0.734180       -19.9781
  12   2.0000      -0.420754       -11.4493
  13   2.0000      -0.413511       -11.2522
  14   2.0000      -0.412260       -11.2182
  15   2.0000      -0.400089       -10.8870
  16   2.0000      -0.398309       -10.8386
  17   2.0000      -0.390877       -10.6363
  18   2.0000      -0.247974        -6.7477
  19   2.0000      -0.224933        -6.1207
  20   2.0000      -0.223409        -6.0793
  21   0.0000      -0.108342        -2.9481
  22   0.0000      -0.106804        -2.9063
  23   0.0000      -0.083272        -2.2660
  24   0.0000      -0.037565        -1.0222
  25   0.0000      -0.036866        -1.0032

MULLIKEN ATOMIC CHARGES
-----------------------
   0 C :   -0.169864
   1 H :    0.179173
   2 C :   -0.171921
   3 H :    0.174023
   4 C :   -0.175695
   5 H :    0.170300
   6 C :   -0.179416
   7 H :    0.173299
   8 C :   -0.175317
   9 H :    0.176406
  10 C :   -0.178698
  11 H :    0.177710
Sum of atomic charges:   -0.0000000

LOEWDIN ATOMIC CHARGES
----------------------
   0 C :   -0.108259
   1 H :    0.121371
   2 C :   -0.116807
   3 H :    0.118166
   4 C :   -0.124059
   5 H :    0.117751
   6 C :   -0.126966
   7 H :    0.118657
   8 C :   -0.119378
   9 H :    0.120604
  10 C :   -0.121738
  11 H :    0.120659

  Mayer bond orders larger than 0.1
B(  0-C ,  1-H ) :   0.8918 B(  0-C ,  2-C ) :   0.3261 B(  0-C ,  6-C ) :   0.1014
B(  0-C , 10-C ) :   0.5664 B(  2-C ,  3-H ) :   0.8971 B(  2-C ,  4-C ) :   0.5759
B(  4-C ,  5-H ) :   0.8993 B(  4-C ,  6-C ) :   0.3092 B(  4-C , 10-C ) :   0.1117
B(  6-C ,  7-H ) :   0.8953 B(  6-C ,  8-C ) :   0.5837 B(  8-C ,  9-H ) :   0.8914
B(  8-C , 10-C ) :   0.3107 B( 10-C , 11-H ) :   0.8897

Dispersion correction           -0.002233170
FINAL SINGLE POINT ENERGY      -230.440783973026

DIPOLE MOMENT
-------------
                                X             Y             Z
Electronic contribution:      0.25771      -0.10474      -0.01450
Nuclear contribution   :     -0.36917       0.20985       0.05005
                        -----------------------------------------
Total Dipole Moment    :     -0.11146       0.10511       0.03555
                        -----------------------------------------
Magnitude (a.u.)       :      0.15727
Magnitude (Debye)      :      0.39976

                             ****ORCA TERMINATED NORMALLY****
TOTAL RUN TIME: 0 days 0 hours 2 minutes 29 seconds 459 msec
