                         Program Version 4.0.0.2 - RELEASE -
|  1> ! WB97X-D3 6-31G(d) VerySlowConv
|  2> ! KDIIS NOSOSCF
|  3> %base "Scan_36"
|  4>
|  5> %scf
|  6> maxiter 999
|  7> end
|  8>
|  9> * xyz 0 1
| 10> C          4.240196003172   -2.486477309727    0.128459008309
| 11> H          4.111571674914   -3.591397413787    0.102347359480
| 12> C          1.955065244030    0.886830243814   -0.052467407571
| 13> H          2.871298604655    0.257670190917    0.001165879355
| 14> C         -2.115677604678    0.636715642820   -0.069891862672
| 15> H         -1.091527294957    1.070904751806   -0.087203364030
| 16> C         -3.966067264807   -2.992732276602    0.122798548319
| 17> H         -3.877378995695   -1.884325574495    0.085358983868
| 18> C         -1.701984863985   -6.381193796302   -0.030037886598
| 19> H         -2.604088010395   -5.733410757328    0.029500413519
| 20> C          2.366256120412   -6.101689936606   -0.099157191037
| 21> H          1.370946387342   -6.597003764497   -0.130872480871
| 22> **                         ****END OF INPUT****

CARTESIAN COORDINATES (ANGSTROEM)
---------------------------------
  C      4.240196   -2.486477    0.128459
  H      4.111572   -3.591397    0.102347
  C      1.955065    0.886830   -0.052467
  H      2.871299    0.257670    0.001166
  C     -2.115678    0.636716   -0.069892
  H     -1.091527    1.070905   -0.087203
  C     -3.966067   -2.992732    0.122799
  H     -3.877379   -1.884326    0.085359
  C     -1.701985   -6.381194   -0.030038
  H     -2.604088   -5.733411    0.029500
  C      2.366256   -6.101690   -0.099157
  H      1.370946   -6.597004   -0.130872

 Total Charge           Charge          ....    0
 Multiplicity           Mult            ....    1
 Number of Electrons    NEL             ....   42
 Basis Dimension        Dim             ....   96

ORBITAL ENERGIES
----------------

  NO   OCC          E(Eh)            E(eV)
   0   2.0000     -10.393889      -282.8321
   1   2.0000     -10.393819      -282.8302
   2   2.0000     -10.393796      -282.8296
   3   2.0000     -10.393698      -282.8269
   4   2.0000     -10.393518      -282.8220
   5   2.0000     -10.393472      -282.8207
   6   2.0000      -0.740422       -20.1479
   7   2.0000      -0.738714       -20.1014
   8   2.0000      -0.738535       -20.0966
   9   2.0000      -0.734725       -19.9929
  10   2.0000      -0.734603       -19.9896
  11   2.0000      -0.732854       -19.9420
  12   2.0000      -0.418323       -11.3832
  13   2.0000      -0.411542       -11.1986
  14   2.0000      -0.411360       -11.1937
  15   2.0000      -0.396835       -10.7984
  16   2.0000      -0.396689       -10.7945
  17   2.0000      -0.388656       -10.5759
  18   2.0000      -0.243781        -6.6336
  19   2.0000      -0.219873        -5.9831
  20   2.0000      -0.219785        -5.9807
  21   0.0000      -0.106858        -2.9078
  22   0.0000      -0.106752        -2.9049
  23   0.0000      -0.083552        -2.2736
  24   0.0000      -0.033635        -0.9153
  25   0.0000      -0.032394        -0.8815

MULLIKEN ATOMIC CHARGES
-----------------------
   0 C :   -0.177208
   1 H :    0.178649
   2 C :   -0.178705
   3 H :    0.177919
   4 C :   -0.179077
   5 H :    0.178921
   6 C :   -0.177714
   7 H :    0.177698
   8 C :   -0.177985
   9 H :    0.178702
  10 C :   -0.179805
  11 H :    0.178606
Sum of atomic charges:   -0.0000000

LOEWDIN ATOMIC CHARGES
----------------------
   0 C :   -0.119901
   1 H :    0.121349
   2 C :   -0.121981
   3 H :    0.120889
   4 C :   -0.120924
   5 H :    0.121341
   6 C :   -0.121273
   7 H :    0.120844
   8 C :   -0.119991
   9 H :    0.121173
  10 C :   -0.122703
  11 H :    0.121177

  Mayer bond orders larger than 0.1
B(  0-C ,  1-H ) :   0.8930 B(  0-C ,  2-C ) :   0.4051 B(  0-C ,  6-C ) :   0.1076
B(  0-C , 10-C ) :   0.4795 B(  2-C ,  3-H ) :   0.8925 B(  2-C ,  4-C ) :   0.4767
B(  2-C ,  8-C ) :   0.1100 B(  4-C ,  5-H ) :   0.8921 B(  4-C ,  6-C ) :   0.4043
B(  4-C , 10-C ) :   0.1114 B(  6-C ,  7-H ) :   0.8935 B(  6-C ,  8-C ) :   0.4804
B(  8-C ,  9-H ) :   0.8924 B(  8-C , 10-C ) :   0.4021 B( 10-C , 11-H ) :   0.8929

Dispersion correction           -0.002124873
FINAL SINGLE POINT ENERGY      -230.434188223689

DIPOLE MOMENT
-------------
                                X             Y             Z
Electronic contribution:     -0.00266       0.00957       0.00088
Nuclear contribution   :      0.00263      -0.03377       0.00051
                        -----------------------------------------
Total Dipole Moment    :     -0.00003      -0.02420       0.00139
                        -----------------------------------------
Magnitude (a.u.)       :      0.02424
Magnitude (Debye)      :      0.06162

                             ****ORCA TERMINATED NORMALLY****
TOTAL RUN TIME: 0 days 0 hours 0 minutes 21 seconds 746 msec
