                         Program Version 4.0.0.2 - RELEASE -
|  1> ! WB97X-D3 6-31G(d) VerySlowConv
|  2> ! KDIIS NOSOSCF
|  3> %base "Scan_37"
|  4>
|  5> %scf
|  6> maxiter 999
|  7> end
|  8>
|  9> * xyz 0 1
| 10> C          4.336619408485   -2.499143052255    0.130755670802
| 11> H          4.222130409684   -3.605541477031    0.101454782861
| 12> C          2.016535168935    0.974169498943   -0.050524003696
| 13> H          2.935194163829    0.348628197199    0.001044593668
| 14> C         -2.156526985409    0.719479356047   -0.062887294571
| 15> H         -1.144360855890    1.180242701714   -0.096830137806
| 16> C         -4.081942951114   -2.987461701736    0.112906256965
| 17> H         -3.977929866816   -1.879917713406    0.093374114206
| 18> C         -1.753838417888   -6.457354245305   -0.025491747635
| 19> H         -2.667290929424   -5.824478819444    0.030097101757
| 20> C          2.418773821896   -6.206752854423   -0.103532736751
| 21> H          1.411247033725   -6.677979890290   -0.130366599732
| 22> **                         ****END OF INPUT****

CARTESIAN COORDINATES (ANGSTROEM)
---------------------------------
  C      4.336619   -2.499143    0.130756
  H      4.222130   -3.605541    0.101455
  C      2.016535    0.974169   -0.050524
  H      2.935194    0.348628    0.001045
  C     -2.156527    0.719479   -0.062887
  H     -1.144361    1.180243   -0.096830
  C     -4.081943   -2.987462    0.112906
  H     -3.977930   -1.879918    0.093374
  C     -1.753838   -6.457354   -0.025492
  H     -2.667291   -5.824479    0.030097
  C      2.418774   -6.206753   -0.103533
  H      1.411247   -6.677980   -0.130367

 Total Charge           Charge          ....    0
 Multiplicity           Mult            ....    1
 Number of Electrons    NEL             ....   42
 Basis Dimension        Dim             ....   96

ORBITAL ENERGIES
----------------

  NO   OCC          E(Eh)            E(eV)
   0   2.0000     -10.393575      -282.8235
   1   2.0000     -10.393500      -282.8215
   2   2.0000     -10.393436      -282.8198
   3   2.0000     -10.393345      -282.8173
   4   2.0000     -10.393312      -282.8164
   5   2.0000     -10.393255      -282.8148
   6   2.0000      -0.739949       -20.1350
   7   2.0000      -0.738538       -20.0966
   8   2.0000      -0.738344       -20.0913
   9   2.0000      -0.735172       -20.0051
  10   2.0000      -0.735008       -20.0006
  11   2.0000      -0.733590       -19.9620
  12   2.0000      -0.415935       -11.3182
  13   2.0000      -0.410118       -11.1599
  14   2.0000      -0.410003       -11.1567
  15   2.0000      -0.397708       -10.8222
  16   2.0000      -0.397459       -10.8154
  17   2.0000      -0.390749       -10.6328
  18   2.0000      -0.241058        -6.5595
  19   2.0000      -0.218128        -5.9356
  20   2.0000      -0.217921        -5.9299
  21   0.0000      -0.108530        -2.9533
  22   0.0000      -0.108307        -2.9472
  23   0.0000      -0.085934        -2.3384
  24   0.0000      -0.032971        -0.8972
  25   0.0000      -0.031980        -0.8702

MULLIKEN ATOMIC CHARGES
-----------------------
   0 C :   -0.175081
   1 H :    0.175996
   2 C :   -0.176742
   3 H :    0.176206
   4 C :   -0.177304
   5 H :    0.177087
   6 C :   -0.175254
   7 H :    0.175787
   8 C :   -0.176432
   9 H :    0.176363
  10 C :   -0.177532
  11 H :    0.176906
Sum of atomic charges:   -0.0000000

LOEWDIN ATOMIC CHARGES
----------------------
   0 C :   -0.119009
   1 H :    0.119943
   2 C :   -0.120559
   3 H :    0.119942
   4 C :   -0.120396
   5 H :    0.120342
   6 C :   -0.119472
   7 H :    0.119829
   8 C :   -0.119959
   9 H :    0.120017
  10 C :   -0.120940
  11 H :    0.120260

  Mayer bond orders larger than 0.1
B(  0-C ,  1-H ) :   0.8958 B(  0-C ,  2-C ) :   0.4347 B(  0-C ,  6-C ) :   0.1073
B(  0-C , 10-C ) :   0.4513 B(  2-C ,  3-H ) :   0.8954 B(  2-C ,  4-C ) :   0.4478
B(  2-C ,  8-C ) :   0.1109 B(  4-C ,  5-H ) :   0.8951 B(  4-C ,  6-C ) :   0.4331
B(  4-C , 10-C ) :   0.1128 B(  6-C ,  7-H ) :   0.8959 B(  6-C ,  8-C ) :   0.4528
B(  8-C ,  9-H ) :   0.8953 B(  8-C , 10-C ) :   0.4296 B( 10-C , 11-H ) :   0.8952

Dispersion correction           -0.002020669
FINAL SINGLE POINT ENERGY      -230.424831643715

DIPOLE MOMENT
-------------
                                X             Y             Z
Electronic contribution:     -0.00020       0.00026       0.00186
Nuclear contribution   :     -0.00055      -0.00172      -0.00212
                        -----------------------------------------
Total Dipole Moment    :     -0.00074      -0.00146      -0.00027
                        -----------------------------------------
Magnitude (a.u.)       :      0.00166
Magnitude (Debye)      :      0.00422

                             ****ORCA TERMINATED NORMALLY****
TOTAL RUN TIME: 0 days 0 hours 0 minutes 19 seconds 336 msec
