                         Program Version 4.0.0.2 - RELEASE -
|  1> ! WB97X-D3 6-31G(d) VerySlowConv
|  2> ! KDIIS NOSOSCF
|  3> %base "Scan_38"
|  4>
|  5> %scf
|  6> maxiter 999
|  7> end
|  8>
|  9> * xyz 0 1
| 10> C          4.438239319443   -2.508656922969    0.128416039500
| 11> H          4.341292757615   -3.616086463149    0.103878812697
| 12> C          2.076732479521    1.060424523943   -0.047228209207
| 13> H          3.000892730250    0.444170581135    0.003474393241
| 14> C         -2.199082346437    0.809862257903   -0.071934798276
| 15> H         -1.195017063977    1.286773195834   -0.098394771047
| 16> C         -4.188466218300   -2.978317144218    0.122774428313
| 17> H         -4.093161752289   -1.870756819182    0.094771095288
| 18> C         -1.811811953594   -6.538480758643   -0.028016266626
| 19> H         -2.735522187633   -5.922192169773    0.028273218772
| 20> C          2.464237780625   -6.302788179517   -0.103645777436
| 21> H          1.460276454785   -6.780062101348   -0.132368165158
| 22> **                         ****END OF INPUT****

CARTESIAN COORDINATES (ANGSTROEM)
---------------------------------
  C      4.438239   -2.508657    0.128416
  H      4.341293   -3.616086    0.103879
  C      2.076732    1.060425   -0.047228
  H      3.000893    0.444171    0.003474
  C     -2.199082    0.809862   -0.071935
  H     -1.195017    1.286773   -0.098395
  C     -4.188466   -2.978317    0.122774
  H     -4.093162   -1.870757    0.094771
  C     -1.811812   -6.538481   -0.028016
  H     -2.735522   -5.922192    0.028273
  C      2.464238   -6.302788   -0.103646
  H      1.460276   -6.780062   -0.132368

 Total Charge           Charge          ....    0
 Multiplicity           Mult            ....    1
 Number of Electrons    NEL             ....   42
 Basis Dimension        Dim             ....   96

ORBITAL ENERGIES
----------------

  NO   OCC          E(Eh)            E(eV)
   0   2.0000     -10.392935      -282.8062
   1   2.0000     -10.392932      -282.8061
   2   2.0000     -10.392769      -282.8016
   3   2.0000     -10.392761      -282.8014
   4   2.0000     -10.392727      -282.8005
   5   2.0000     -10.392724      -282.8004
   6   2.0000      -0.739556       -20.1243
   7   2.0000      -0.738390       -20.0926
   8   2.0000      -0.738199       -20.0874
   9   2.0000      -0.735554       -20.0154
  10   2.0000      -0.735384       -20.0108
  11   2.0000      -0.734224       -19.9792
  12   2.0000      -0.413611       -11.2549
  13   2.0000      -0.408686       -11.1209
  14   2.0000      -0.408607       -11.1188
  15   2.0000      -0.398284       -10.8379
  16   2.0000      -0.398049       -10.8315
  17   2.0000      -0.392469       -10.6796
  18   2.0000      -0.238294        -6.4843
  19   2.0000      -0.216237        -5.8841
  20   2.0000      -0.216031        -5.8785
  21   0.0000      -0.109805        -2.9880
  22   0.0000      -0.109549        -2.9810
  23   0.0000      -0.087936        -2.3929
  24   0.0000      -0.032228        -0.8770
  25   0.0000      -0.031442        -0.8556

MULLIKEN ATOMIC CHARGES
-----------------------
   0 C :   -0.173597
   1 H :    0.174443
   2 C :   -0.175090
   3 H :    0.174783
   4 C :   -0.175349
   5 H :    0.174803
   6 C :   -0.173630
   7 H :    0.174451
   8 C :   -0.175066
   9 H :    0.174846
  10 C :   -0.175365
  11 H :    0.174771
Sum of atomic charges:   -0.0000000

LOEWDIN ATOMIC CHARGES
----------------------
   0 C :   -0.118070
   1 H :    0.118893
   2 C :   -0.119367
   3 H :    0.119018
   4 C :   -0.119520
   5 H :    0.119074
   6 C :   -0.118172
   7 H :    0.118904
   8 C :   -0.119237
   9 H :    0.119044
  10 C :   -0.119637
  11 H :    0.119068

  Mayer bond orders larger than 0.1
B(  0-C ,  1-H ) :   0.8980 B(  0-C ,  2-C ) :   0.4519 B(  0-C ,  6-C ) :   0.1072
B(  0-C , 10-C ) :   0.4356 B(  2-C ,  3-H ) :   0.8976 B(  2-C ,  4-C ) :   0.4316
B(  2-C ,  8-C ) :   0.1113 B(  4-C ,  5-H ) :   0.8975 B(  4-C ,  6-C ) :   0.4503
B(  4-C , 10-C ) :   0.1131 B(  6-C ,  7-H ) :   0.8980 B(  6-C ,  8-C ) :   0.4372
B(  8-C ,  9-H ) :   0.8975 B(  8-C , 10-C ) :   0.4462 B( 10-C , 11-H ) :   0.8975

Dispersion correction           -0.001893801
FINAL SINGLE POINT ENERGY      -230.415987826178

DIPOLE MOMENT
-------------
                                X             Y             Z
Electronic contribution:      0.00000       0.00007       0.00145
Nuclear contribution   :     -0.00094      -0.00017      -0.00063
                        -----------------------------------------
Total Dipole Moment    :     -0.00094      -0.00010       0.00081
                        -----------------------------------------
Magnitude (a.u.)       :      0.00125
Magnitude (Debye)      :      0.00317

                             ****ORCA TERMINATED NORMALLY****
TOTAL RUN TIME: 0 days 0 hours 0 minutes 14 seconds 540 msec
