                         Program Version 4.0.0.2 - RELEASE -
|  1> ! WB97X-D3 6-31G(d) VerySlowConv
|  2> ! KDIIS NOSOSCF
|  3> %base "Scan_39"
|  4>
|  5> %scf
|  6> maxiter 999
|  7> end
|  8>
|  9> * xyz 0 1
| 10> C          4.541143669951   -2.516606831261    0.130695400915
| 11> H          4.449751047778   -3.625115491641    0.105481132614
| 12> C          2.135304524695    1.145916421534   -0.046237704011
| 13> H          3.061940133225    0.532252279580    0.003556650131
| 14> C         -2.243401470373    0.901666203803   -0.072816168183
| 15> H         -1.240937171609    1.383218607484   -0.103113404155
| 16> C         -4.293212414120   -2.970475289477    0.122666636464
| 17> H         -4.199969373629   -1.862072579548    0.100066436828
| 18> C         -1.869730304335   -6.622570385661   -0.026918062442
| 19> H         -2.797419791761   -6.010879846813    0.027476050848
| 20> C          2.509273645293   -6.395856539548   -0.106661874109
| 21> H          1.505867504904   -6.875586548446   -0.134195094836
| 22> **                         ****END OF INPUT****

CARTESIAN COORDINATES (ANGSTROEM)
---------------------------------
  C      4.541144   -2.516607    0.130695
  H      4.449751   -3.625115    0.105481
  C      2.135305    1.145916   -0.046238
  H      3.061940    0.532252    0.003557
  C     -2.243401    0.901666   -0.072816
  H     -1.240937    1.383219   -0.103113
  C     -4.293212   -2.970475    0.122667
  H     -4.199969   -1.862073    0.100066
  C     -1.869730   -6.622570   -0.026918
  H     -2.797420   -6.010880    0.027476
  C      2.509274   -6.395857   -0.106662
  H      1.505868   -6.875587   -0.134195

 Total Charge           Charge          ....    0
 Multiplicity           Mult            ....    1
 Number of Electrons    NEL             ....   42
 Basis Dimension        Dim             ....   96

ORBITAL ENERGIES
----------------

  NO   OCC          E(Eh)            E(eV)
   0   2.0000     -10.392595      -282.7969
   1   2.0000     -10.392567      -282.7961
   2   2.0000     -10.392465      -282.7934
   3   2.0000     -10.392433      -282.7925
   4   2.0000     -10.392373      -282.7909
   5   2.0000     -10.392337      -282.7899
   6   2.0000      -0.739069       -20.1111
   7   2.0000      -0.738092       -20.0845
   8   2.0000      -0.737908       -20.0795
   9   2.0000      -0.735668       -20.0185
  10   2.0000      -0.735503       -20.0141
  11   2.0000      -0.734537       -19.9878
  12   2.0000      -0.411760       -11.2046
  13   2.0000      -0.407599       -11.0913
  14   2.0000      -0.407493       -11.0884
  15   2.0000      -0.398819       -10.8524
  16   2.0000      -0.398571       -10.8457
  17   2.0000      -0.393911       -10.7189
  18   2.0000      -0.235855        -6.4179
  19   2.0000      -0.214601        -5.8396
  20   2.0000      -0.214378        -5.8335
  21   0.0000      -0.111125        -3.0239
  22   0.0000      -0.110891        -3.0175
  23   0.0000      -0.089966        -2.4481
  24   0.0000      -0.031703        -0.8627
  25   0.0000      -0.031084        -0.8458

MULLIKEN ATOMIC CHARGES
-----------------------
   0 C :   -0.171765
   1 H :    0.172628
   2 C :   -0.173724
   3 H :    0.173152
   4 C :   -0.174220
   5 H :    0.173872
   6 C :   -0.171813
   7 H :    0.172728
   8 C :   -0.173776
   9 H :    0.173217
  10 C :   -0.174085
  11 H :    0.173785
Sum of atomic charges:   -0.0000000

LOEWDIN ATOMIC CHARGES
----------------------
   0 C :   -0.117047
   1 H :    0.117881
   2 C :   -0.118720
   3 H :    0.118117
   4 C :   -0.118684
   5 H :    0.118417
   6 C :   -0.117079
   7 H :    0.117923
   8 C :   -0.118691
   9 H :    0.118150
  10 C :   -0.118644
  11 H :    0.118377

  Mayer bond orders larger than 0.1
B(  0-C ,  1-H ) :   0.8998 B(  0-C ,  2-C ) :   0.4417 B(  0-C ,  6-C ) :   0.1075
B(  0-C , 10-C ) :   0.4464 B(  2-C ,  3-H ) :   0.8995 B(  2-C ,  4-C ) :   0.4429
B(  2-C ,  8-C ) :   0.1110 B(  4-C ,  5-H ) :   0.8992 B(  4-C ,  6-C ) :   0.4394
B(  4-C , 10-C ) :   0.1135 B(  6-C ,  7-H ) :   0.8998 B(  6-C ,  8-C ) :   0.4487
B(  8-C ,  9-H ) :   0.8995 B(  8-C , 10-C ) :   0.4360 B( 10-C , 11-H ) :   0.8992

Dispersion correction           -0.001761819
FINAL SINGLE POINT ENERGY      -230.407966695544

DIPOLE MOMENT
-------------
                                X             Y             Z
Electronic contribution:     -0.00016       0.00006       0.00171
Nuclear contribution   :     -0.00013      -0.00022      -0.00126
                        -----------------------------------------
Total Dipole Moment    :     -0.00029      -0.00017       0.00045
                        -----------------------------------------
Magnitude (a.u.)       :      0.00056
Magnitude (Debye)      :      0.00142

                             ****ORCA TERMINATED NORMALLY****
TOTAL RUN TIME: 0 days 0 hours 0 minutes 13 seconds 786 msec
