                         Program Version 4.0.0.2 - RELEASE -
|  1> ! WB97X-D3 6-31G(d) VerySlowConv
|  2> ! KDIIS NOSOSCF
|  3> %base "Scan_4"
|  4>
|  5> %scf
|  6> maxiter 999
|  7> end
|  8>
|  9> * xyz 0 1
| 10> C          1.316265560588   -2.833833803653   -0.000000000000
| 11> H          2.419509241534   -2.918293746141    0.000000000000
| 12> C          0.801731304889   -1.760985060898   -0.000000000000
| 13> H          1.426497603376   -0.847777978886   -0.000000000000
| 14> C         -0.384650089129   -1.670160422703   -0.000000000000
| 15> H         -0.863127472039   -0.672493396488   -0.000000000000
| 16> C         -1.056497227259   -2.652184529681   -0.000000000000
| 17> H         -2.159740908201   -2.567724587173   -0.000000000000
| 18> C         -0.541962971552   -3.725033272431   -0.000000000000
| 19> H         -1.166729270026   -4.638240354455   -0.000000000000
| 20> C          0.644418422466   -3.815857910634   -0.000000000000
| 21> H          1.122895805353   -4.813524936858    0.000000000000
| 22> **                         ****END OF INPUT****

CARTESIAN COORDINATES (ANGSTROEM)
---------------------------------
  C      1.316266   -2.833834   -0.000000
  H      2.419509   -2.918294    0.000000
  C      0.801731   -1.760985   -0.000000
  H      1.426498   -0.847778   -0.000000
  C     -0.384650   -1.670160   -0.000000
  H     -0.863127   -0.672493   -0.000000
  C     -1.056497   -2.652185   -0.000000
  H     -2.159741   -2.567725   -0.000000
  C     -0.541963   -3.725033   -0.000000
  H     -1.166729   -4.638240   -0.000000
  C      0.644418   -3.815858   -0.000000
  H      1.122896   -4.813525    0.000000

 Total Charge           Charge          ....    0
 Multiplicity           Mult            ....    1
 Number of Electrons    NEL             ....   42
 Basis Dimension        Dim             ....   96

ORBITAL ENERGIES
----------------

  NO   OCC          E(Eh)            E(eV)
   0   2.0000     -10.231837      -278.4225
   1   2.0000     -10.230634      -278.3897
   2   2.0000     -10.230461      -278.3850
   3   2.0000     -10.228019      -278.3185
   4   2.0000     -10.227844      -278.3138
   5   2.0000     -10.226689      -278.2823
   6   2.0000      -1.087616       -29.5955
   7   2.0000      -0.902093       -24.5472
   8   2.0000      -0.902017       -24.5451
   9   2.0000      -0.728037       -19.8109
  10   2.0000      -0.727830       -19.8053
  11   2.0000      -0.676952       -18.4208
  12   2.0000      -0.599403       -16.3106
  13   2.0000      -0.552714       -15.0401
  14   2.0000      -0.523713       -14.2510
  15   2.0000      -0.523539       -14.2462
  16   2.0000      -0.497712       -13.5434
  17   2.0000      -0.407484       -11.0882
  18   2.0000      -0.407082       -11.0773
  19   2.0000      -0.368743       -10.0340
  20   2.0000      -0.368505       -10.0275
  21   0.0000       0.136852         3.7239
  22   0.0000       0.137143         3.7319
  23   0.0000       0.155807         4.2397
  24   0.0000       0.226988         6.1767
  25   0.0000       0.227568         6.1924

MULLIKEN ATOMIC CHARGES
-----------------------
   0 C :   -0.144920
   1 H :    0.143337
   2 C :   -0.140279
   3 H :    0.141763
   4 C :   -0.140252
   5 H :    0.140350
   6 C :   -0.144920
   7 H :    0.143337
   8 C :   -0.140279
   9 H :    0.141763
  10 C :   -0.140252
  11 H :    0.140350
Sum of atomic charges:   -0.0000000

LOEWDIN ATOMIC CHARGES
----------------------
   0 C :   -0.128621
   1 H :    0.128504
   2 C :   -0.128393
   3 H :    0.128431
   4 C :   -0.128131
   5 H :    0.128211
   6 C :   -0.128621
   7 H :    0.128504
   8 C :   -0.128393
   9 H :    0.128431
  10 C :   -0.128131
  11 H :    0.128211

  Mayer bond orders larger than 0.1
B(  0-C ,  1-H ) :   0.9121 B(  0-C ,  2-C ) :   1.5213 B(  0-C , 10-C ) :   1.5237
B(  2-C ,  3-H ) :   0.9127 B(  2-C ,  4-C ) :   1.5222 B(  4-C ,  5-H ) :   0.9129
B(  4-C ,  6-C ) :   1.5237 B(  6-C ,  7-H ) :   0.9121 B(  6-C ,  8-C ) :   1.5213
B(  8-C ,  9-H ) :   0.9127 B(  8-C , 10-C ) :   1.5222 B( 10-C , 11-H ) :   0.9129

Dispersion correction           -0.001909850
FINAL SINGLE POINT ENERGY      -231.828791103212

DIPOLE MOMENT
-------------
                                X             Y             Z
Electronic contribution:     -0.00000       0.00000       0.00000
Nuclear contribution   :     -0.00000      -0.00000       0.00000
                        -----------------------------------------
Total Dipole Moment    :     -0.00000       0.00000       0.00000
                        -----------------------------------------
Magnitude (a.u.)       :      0.00000
Magnitude (Debye)      :      0.00000

                             ****ORCA TERMINATED NORMALLY****
TOTAL RUN TIME: 0 days 0 hours 0 minutes 54 seconds 749 msec
