                         Program Version 4.0.0.2 - RELEASE -
|  1> ! WB97X-D3 6-31G(d) VerySlowConv
|  2> ! KDIIS NOSOSCF
|  3> %base "Scan_40"
|  4>
|  5> %scf
|  6> maxiter 999
|  7> end
|  8>
|  9> * xyz 0 1
| 10> C          4.644556495888   -2.524691757878    0.132273401715
| 11> H          4.556640163219   -3.633467959318    0.107973956993
| 12> C          2.193921485522    1.230892778831   -0.045501222388
| 13> H          3.122078380421    0.619589706869    0.004360875139
| 14> C         -2.287633876396    0.993722388867   -0.077602560341
| 15> H         -1.286582059729    1.478242702168   -0.105936579335
| 16> C         -4.396849093681   -2.962337164773    0.128280605258
| 17> H         -4.306384863488   -1.853783601614    0.103275413766
| 18> C         -1.928206967210   -6.707049550055   -0.028442910395
| 19> H         -2.857890390759   -6.098513768221    0.026542624705
| 20> C          2.553694537750   -6.488516331492   -0.108554900459
| 21> H          1.551266188484   -6.970197443374   -0.136668704594
| 22> **                         ****END OF INPUT****

CARTESIAN COORDINATES (ANGSTROEM)
---------------------------------
  C      4.644556   -2.524692    0.132273
  H      4.556640   -3.633468    0.107974
  C      2.193921    1.230893   -0.045501
  H      3.122078    0.619590    0.004361
  C     -2.287634    0.993722   -0.077603
  H     -1.286582    1.478243   -0.105937
  C     -4.396849   -2.962337    0.128281
  H     -4.306385   -1.853784    0.103275
  C     -1.928207   -6.707050   -0.028443
  H     -2.857890   -6.098514    0.026543
  C      2.553695   -6.488516   -0.108555
  H      1.551266   -6.970197   -0.136669

 Total Charge           Charge          ....    0
 Multiplicity           Mult            ....    1
 Number of Electrons    NEL             ....   42
 Basis Dimension        Dim             ....   96

ORBITAL ENERGIES
----------------

  NO   OCC          E(Eh)            E(eV)
   0   2.0000     -10.392180      -282.7856
   1   2.0000     -10.392147      -282.7847
   2   2.0000     -10.392048      -282.7820
   3   2.0000     -10.392009      -282.7809
   4   2.0000     -10.391986      -282.7803
   5   2.0000     -10.391941      -282.7791
   6   2.0000      -0.738797       -20.1037
   7   2.0000      -0.737978       -20.0814
   8   2.0000      -0.737796       -20.0764
   9   2.0000      -0.735897       -20.0248
  10   2.0000      -0.735727       -20.0202
  11   2.0000      -0.734923       -19.9983
  12   2.0000      -0.410167       -11.1612
  13   2.0000      -0.406647       -11.0654
  14   2.0000      -0.406558       -11.0630
  15   2.0000      -0.399272       -10.8647
  16   2.0000      -0.399037       -10.8584
  17   2.0000      -0.395148       -10.7525
  18   2.0000      -0.233586        -6.3562
  19   2.0000      -0.213039        -5.7971
  20   2.0000      -0.212861        -5.7922
  21   0.0000      -0.112363        -3.0576
  22   0.0000      -0.112146        -3.0516
  23   0.0000      -0.091865        -2.4998
  24   0.0000      -0.031266        -0.8508
  25   0.0000      -0.030789        -0.8378

MULLIKEN ATOMIC CHARGES
-----------------------
   0 C :   -0.170011
   1 H :    0.170904
   2 C :   -0.171872
   3 H :    0.171468
   4 C :   -0.172090
   5 H :    0.171556
   6 C :   -0.169972
   7 H :    0.170957
   8 C :   -0.171941
   9 H :    0.171440
  10 C :   -0.172048
  11 H :    0.171611
Sum of atomic charges:   -0.0000000

LOEWDIN ATOMIC CHARGES
----------------------
   0 C :   -0.115972
   1 H :    0.116849
   2 C :   -0.117540
   3 H :    0.117102
   4 C :   -0.117647
   5 H :    0.117177
   6 C :   -0.115937
   7 H :    0.116874
   8 C :   -0.117601
   9 H :    0.117102
  10 C :   -0.117601
  11 H :    0.117194

  Mayer bond orders larger than 0.1
B(  0-C ,  1-H ) :   0.9012 B(  0-C ,  2-C ) :   0.4368 B(  0-C ,  6-C ) :   0.1074
B(  0-C , 10-C ) :   0.4522 B(  2-C ,  3-H ) :   0.9009 B(  2-C ,  4-C ) :   0.4481
B(  2-C ,  8-C ) :   0.1115 B(  4-C ,  5-H ) :   0.9007 B(  4-C ,  6-C ) :   0.4353
B(  4-C , 10-C ) :   0.1132 B(  6-C ,  7-H ) :   0.9012 B(  6-C ,  8-C ) :   0.4537
B(  8-C ,  9-H ) :   0.9009 B(  8-C , 10-C ) :   0.4312 B( 10-C , 11-H ) :   0.9007

Dispersion correction           -0.001626775
FINAL SINGLE POINT ENERGY      -230.400519023228

DIPOLE MOMENT
-------------
                                X             Y             Z
Electronic contribution:      0.00007       0.00017       0.00162
Nuclear contribution   :     -0.00031      -0.00013      -0.00078
                        -----------------------------------------
Total Dipole Moment    :     -0.00024       0.00004       0.00084
                        -----------------------------------------
Magnitude (a.u.)       :      0.00087
Magnitude (Debye)      :      0.00222

                             ****ORCA TERMINATED NORMALLY****
TOTAL RUN TIME: 0 days 0 hours 0 minutes 15 seconds 511 msec
