                         Program Version 4.0.0.2 - RELEASE -
|  1> ! WB97X-D3 6-31G(d) VerySlowConv
|  2> ! KDIIS NOSOSCF
|  3> %base "Scan_41"
|  4>
|  5> %scf
|  6> maxiter 999
|  7> end
|  8>
|  9> * xyz 0 1
| 10> C          4.748020148131   -2.532651215232    0.134941659504
| 11> H          4.661954387894   -3.641553558094    0.110366271946
| 12> C          2.252390552156    1.315737202645   -0.045059885346
| 13> H          3.181396788270    0.705727930399    0.004635799320
| 14> C         -2.331995951928    1.085924541604   -0.080272391324
| 15> H         -1.331608247883    1.571721132255   -0.109782674581
| 16> C         -4.500426294236   -2.954363639048    0.130927432312
| 17> H         -4.411339765209   -1.845669464003    0.107558320956
| 18> C         -1.986646031448   -6.791839407287   -0.028313910625
| 19> H         -2.917301572971   -6.184741316284    0.025882829916
| 20> C          2.598019475948   -6.580779524887   -0.111618072338
| 21> H          1.596146511299   -7.063622682055   -0.139265379678
| 22> **                         ****END OF INPUT****

CARTESIAN COORDINATES (ANGSTROEM)
---------------------------------
  C      4.748020   -2.532651    0.134942
  H      4.661954   -3.641554    0.110366
  C      2.252391    1.315737   -0.045060
  H      3.181397    0.705728    0.004636
  C     -2.331996    1.085925   -0.080272
  H     -1.331608    1.571721   -0.109783
  C     -4.500426   -2.954364    0.130927
  H     -4.411340   -1.845669    0.107558
  C     -1.986646   -6.791839   -0.028314
  H     -2.917302   -6.184741    0.025883
  C      2.598019   -6.580780   -0.111618
  H      1.596147   -7.063623   -0.139265

 Total Charge           Charge          ....    0
 Multiplicity           Mult            ....    1
 Number of Electrons    NEL             ....   42
 Basis Dimension        Dim             ....   96

ORBITAL ENERGIES
----------------

  NO   OCC          E(Eh)            E(eV)
   0   2.0000     -10.391832      -282.7761
   1   2.0000     -10.391778      -282.7747
   2   2.0000     -10.391697      -282.7725
   3   2.0000     -10.391640      -282.7709
   4   2.0000     -10.391630      -282.7706
   5   2.0000     -10.391568      -282.7689
   6   2.0000      -0.738577       -20.0977
   7   2.0000      -0.737887       -20.0789
   8   2.0000      -0.737711       -20.0741
   9   2.0000      -0.736087       -20.0300
  10   2.0000      -0.735919       -20.0254
  11   2.0000      -0.735245       -20.0070
  12   2.0000      -0.408810       -11.1243
  13   2.0000      -0.405843       -11.0436
  14   2.0000      -0.405761       -11.0413
  15   2.0000      -0.399672       -10.8756
  16   2.0000      -0.399423       -10.8688
  17   2.0000      -0.396195       -10.7810
  18   2.0000      -0.231494        -6.2993
  19   2.0000      -0.211602        -5.7580
  20   2.0000      -0.211444        -5.7537
  21   0.0000      -0.113537        -3.0895
  22   0.0000      -0.113347        -3.0843
  23   0.0000      -0.093656        -2.5485
  24   0.0000      -0.030904        -0.8409
  25   0.0000      -0.030537        -0.8310

MULLIKEN ATOMIC CHARGES
-----------------------
   0 C :   -0.168412
   1 H :    0.169230
   2 C :   -0.170568
   3 H :    0.170179
   4 C :   -0.170548
   5 H :    0.170067
   6 C :   -0.168347
   7 H :    0.169264
   8 C :   -0.170678
   9 H :    0.170186
  10 C :   -0.170447
  11 H :    0.170074
Sum of atomic charges:   -0.0000000

LOEWDIN ATOMIC CHARGES
----------------------
   0 C :   -0.115055
   1 H :    0.115868
   2 C :   -0.116705
   3 H :    0.116276
   4 C :   -0.116705
   5 H :    0.116278
   6 C :   -0.114995
   7 H :    0.115884
   8 C :   -0.116794
   9 H :    0.116289
  10 C :   -0.116619
  11 H :    0.116276

  Mayer bond orders larger than 0.1
B(  0-C ,  1-H ) :   0.9023 B(  0-C ,  2-C ) :   0.4344 B(  0-C ,  6-C ) :   0.1075
B(  0-C , 10-C ) :   0.4553 B(  2-C ,  3-H ) :   0.9020 B(  2-C ,  4-C ) :   0.4510
B(  2-C ,  8-C ) :   0.1118 B(  4-C ,  5-H ) :   0.9018 B(  4-C ,  6-C ) :   0.4331
B(  4-C , 10-C ) :   0.1131 B(  6-C ,  7-H ) :   0.9023 B(  6-C ,  8-C ) :   0.4565
B(  8-C ,  9-H ) :   0.9020 B(  8-C , 10-C ) :   0.4288 B( 10-C , 11-H ) :   0.9018

Dispersion correction           -0.001490529
FINAL SINGLE POINT ENERGY      -230.393680444524

DIPOLE MOMENT
-------------
                                X             Y             Z
Electronic contribution:      0.00003       0.00015       0.00175
Nuclear contribution   :     -0.00010      -0.00014      -0.00105
                        -----------------------------------------
Total Dipole Moment    :     -0.00007       0.00001       0.00071
                        -----------------------------------------
Magnitude (a.u.)       :      0.00071
Magnitude (Debye)      :      0.00180

                             ****ORCA TERMINATED NORMALLY****
TOTAL RUN TIME: 0 days 0 hours 0 minutes 13 seconds 995 msec
