                         Program Version 4.0.0.2 - RELEASE -
|  1> ! WB97X-D3 6-31G(d) VerySlowConv
|  2> ! KDIIS NOSOSCF
|  3> %base "Scan_42"
|  4>
|  5> %scf
|  6> maxiter 999
|  7> end
|  8>
|  9> * xyz 0 1
| 10> C          4.851519545313   -2.540517711516    0.137782320744
| 11> H          4.766082905715   -3.649472475490    0.113097542275
| 12> C          2.310759056955    1.400518785147   -0.044790502789
| 13> H          3.240080603457    0.790985861999    0.005049552299
| 14> C         -2.376402215211    1.177995850768   -0.084282717187
| 15> H         -1.376203301076    1.664237615836   -0.113086283183
| 16> C         -4.603764821677   -2.946454036611    0.135474534460
| 17> H         -4.515352615766   -1.837717696628    0.111257159616
| 18> C         -2.045059341982   -6.876659894891   -0.029082821949
| 19> H         -2.976028946068   -6.270050217091    0.025342737372
| 20> C          2.642339027514   -6.672873274748   -0.114613166136
| 21> H          1.640640102845   -7.156102806766   -0.142148355461
| 22> **                         ****END OF INPUT****

CARTESIAN COORDINATES (ANGSTROEM)
---------------------------------
  C      4.851520   -2.540518    0.137782
  H      4.766083   -3.649472    0.113098
  C      2.310759    1.400519   -0.044791
  H      3.240081    0.790986    0.005050
  C     -2.376402    1.177996   -0.084283
  H     -1.376203    1.664238   -0.113086
  C     -4.603765   -2.946454    0.135475
  H     -4.515353   -1.837718    0.111257
  C     -2.045059   -6.876660   -0.029083
  H     -2.976029   -6.270050    0.025343
  C      2.642339   -6.672873   -0.114613
  H      1.640640   -7.156103   -0.142148

 Total Charge           Charge          ....    0
 Multiplicity           Mult            ....    1
 Number of Electrons    NEL             ....   42
 Basis Dimension        Dim             ....   96

ORBITAL ENERGIES
----------------

  NO   OCC          E(Eh)            E(eV)
   0   2.0000     -10.391488      -282.7668
   1   2.0000     -10.391486      -282.7667
   2   2.0000     -10.391355      -282.7631
   3   2.0000     -10.391350      -282.7630
   4   2.0000     -10.391305      -282.7618
   5   2.0000     -10.391291      -282.7614
   6   2.0000      -0.738407       -20.0931
   7   2.0000      -0.737822       -20.0771
   8   2.0000      -0.737651       -20.0725
   9   2.0000      -0.736254       -20.0345
  10   2.0000      -0.736092       -20.0301
  11   2.0000      -0.735522       -20.0146
  12   2.0000      -0.407647       -11.0927
  13   2.0000      -0.405169       -11.0252
  14   2.0000      -0.405072       -11.0226
  15   2.0000      -0.400006       -10.8847
  16   2.0000      -0.399776       -10.8785
  17   2.0000      -0.397097       -10.8055
  18   2.0000      -0.229562        -6.2467
  19   2.0000      -0.210268        -5.7217
  20   2.0000      -0.210118        -5.7176
  21   0.0000      -0.114663        -3.1201
  22   0.0000      -0.114489        -3.1154
  23   0.0000      -0.095344        -2.5945
  24   0.0000      -0.030612        -0.8330
  25   0.0000      -0.030334        -0.8254

MULLIKEN ATOMIC CHARGES
-----------------------
   0 C :   -0.166945
   1 H :    0.167772
   2 C :   -0.169185
   3 H :    0.168766
   4 C :   -0.169058
   5 H :    0.168623
   6 C :   -0.166940
   7 H :    0.167804
   8 C :   -0.169199
   9 H :    0.168754
  10 C :   -0.169030
  11 H :    0.168639
Sum of atomic charges:   -0.0000000

LOEWDIN ATOMIC CHARGES
----------------------
   0 C :   -0.114175
   1 H :    0.114993
   2 C :   -0.115862
   3 H :    0.115419
   4 C :   -0.115806
   5 H :    0.115410
   6 C :   -0.114169
   7 H :    0.115011
   8 C :   -0.115874
   9 H :    0.115419
  10 C :   -0.115781
  11 H :    0.115415

  Mayer bond orders larger than 0.1
B(  0-C ,  1-H ) :   0.9032 B(  0-C ,  2-C ) :   0.4467 B(  0-C ,  6-C ) :   0.1079
B(  0-C , 10-C ) :   0.4430 B(  2-C ,  3-H ) :   0.9029 B(  2-C ,  4-C ) :   0.4396
B(  2-C ,  8-C ) :   0.1113 B(  4-C ,  5-H ) :   0.9027 B(  4-C ,  6-C ) :   0.4447
B(  4-C , 10-C ) :   0.1135 B(  6-C ,  7-H ) :   0.9032 B(  6-C ,  8-C ) :   0.4450
B(  8-C ,  9-H ) :   0.9029 B(  8-C , 10-C ) :   0.4413 B( 10-C , 11-H ) :   0.9027

Dispersion correction           -0.001354318
FINAL SINGLE POINT ENERGY      -230.387385857079

DIPOLE MOMENT
-------------
                                X             Y             Z
Electronic contribution:     -0.00000       0.00002       0.00163
Nuclear contribution   :     -0.00015      -0.00011      -0.00084
                        -----------------------------------------
Total Dipole Moment    :     -0.00015      -0.00009       0.00079
                        -----------------------------------------
Magnitude (a.u.)       :      0.00081
Magnitude (Debye)      :      0.00205

                             ****ORCA TERMINATED NORMALLY****
TOTAL RUN TIME: 0 days 0 hours 0 minutes 20 seconds 650 msec
