                         Program Version 4.0.0.2 - RELEASE -
|  1> ! WB97X-D3 6-31G(d) VerySlowConv
|  2> ! KDIIS NOSOSCF
|  3> %base "Scan_43"
|  4>
|  5> %scf
|  6> maxiter 999
|  7> end
|  8>
|  9> * xyz 0 1
| 10> C          4.954975099438   -2.548328316018    0.141089637270
| 11> H          4.869469437574   -3.657288504487    0.115994178247
| 12> C          2.369081767687    1.485279650910   -0.044684727987
| 13> H          3.298358590685    0.875650420586    0.005303222304
| 14> C         -2.420818518982    1.270007546742   -0.087757782460
| 15> H         -1.420518814788    1.756075471839   -0.116786397110
| 16> C         -4.707128460410   -2.938618452125    0.139328394597
| 17> H         -4.618634773923   -1.829863361230    0.115308561177
| 18> C         -2.103410673529   -6.961498220900   -0.029340850150
| 19> H         -3.034308766422   -6.354724203330    0.024910236941
| 20> C          2.686660369029   -6.764832802240   -0.118079960057
| 21> H          1.684884743661   -7.247969229740   -0.145284512713
| 22> **                         ****END OF INPUT****

CARTESIAN COORDINATES (ANGSTROEM)
---------------------------------
  C      4.954975   -2.548328    0.141090
  H      4.869469   -3.657289    0.115994
  C      2.369082    1.485280   -0.044685
  H      3.298359    0.875650    0.005303
  C     -2.420819    1.270008   -0.087758
  H     -1.420519    1.756075   -0.116786
  C     -4.707128   -2.938618    0.139328
  H     -4.618635   -1.829863    0.115309
  C     -2.103411   -6.961498   -0.029341
  H     -3.034309   -6.354724    0.024910
  C      2.686660   -6.764833   -0.118080
  H      1.684885   -7.247969   -0.145285

 Total Charge           Charge          ....    0
 Multiplicity           Mult            ....    1
 Number of Electrons    NEL             ....   42
 Basis Dimension        Dim             ....   96

ORBITAL ENERGIES
----------------

  NO   OCC          E(Eh)            E(eV)
   0   2.0000     -10.391288      -282.7613
   1   2.0000     -10.391283      -282.7612
   2   2.0000     -10.391098      -282.7561
   3   2.0000     -10.391068      -282.7553
   4   2.0000     -10.390989      -282.7532
   5   2.0000     -10.390961      -282.7524
   6   2.0000      -0.738282       -20.0897
   7   2.0000      -0.737786       -20.0762
   8   2.0000      -0.737618       -20.0716
   9   2.0000      -0.736409       -20.0387
  10   2.0000      -0.736245       -20.0342
  11   2.0000      -0.735764       -20.0212
  12   2.0000      -0.406670       -11.0660
  13   2.0000      -0.404606       -11.0099
  14   2.0000      -0.404501       -11.0070
  15   2.0000      -0.400297       -10.8926
  16   2.0000      -0.400087       -10.8869
  17   2.0000      -0.397868       -10.8265
  18   2.0000      -0.227776        -6.1981
  19   2.0000      -0.208989        -5.6869
  20   2.0000      -0.208939        -5.6855
  21   0.0000      -0.115709        -3.1486
  22   0.0000      -0.115603        -3.1457
  23   0.0000      -0.096944        -2.6380
  24   0.0000      -0.030387        -0.8269
  25   0.0000      -0.030184        -0.8214

MULLIKEN ATOMIC CHARGES
-----------------------
   0 C :   -0.165419
   1 H :    0.166389
   2 C :   -0.167848
   3 H :    0.167336
   4 C :   -0.167529
   5 H :    0.167135
   6 C :   -0.165733
   7 H :    0.166468
   8 C :   -0.167489
   9 H :    0.167251
  10 C :   -0.167761
  11 H :    0.167201
Sum of atomic charges:   -0.0000000

LOEWDIN ATOMIC CHARGES
----------------------
   0 C :   -0.113213
   1 H :    0.114176
   2 C :   -0.115123
   3 H :    0.114593
   4 C :   -0.114922
   5 H :    0.114557
   6 C :   -0.113508
   7 H :    0.114225
   8 C :   -0.114784
   9 H :    0.114541
  10 C :   -0.115131
  11 H :    0.114588

  Mayer bond orders larger than 0.1
B(  0-C ,  1-H ) :   0.9039 B(  0-C ,  2-C ) :   0.4360 B(  0-C ,  6-C ) :   0.1091
B(  0-C , 10-C ) :   0.4531 B(  2-C ,  3-H ) :   0.9036 B(  2-C ,  4-C ) :   0.4499
B(  2-C ,  8-C ) :   0.1123 B(  4-C ,  5-H ) :   0.9035 B(  4-C ,  6-C ) :   0.4371
B(  4-C , 10-C ) :   0.1113 B(  6-C ,  7-H ) :   0.9039 B(  6-C ,  8-C ) :   0.4519
B(  8-C ,  9-H ) :   0.9036 B(  8-C , 10-C ) :   0.4339 B( 10-C , 11-H ) :   0.9034

Dispersion correction           -0.001220446
FINAL SINGLE POINT ENERGY      -230.381595753903

DIPOLE MOMENT
-------------
                                X             Y             Z
Electronic contribution:      0.00018      -0.00072       0.00176
Nuclear contribution   :     -0.00009      -0.00011      -0.00096
                        -----------------------------------------
Total Dipole Moment    :      0.00009      -0.00083       0.00080
                        -----------------------------------------
Magnitude (a.u.)       :      0.00115
Magnitude (Debye)      :      0.00293

                             ****ORCA TERMINATED NORMALLY****
TOTAL RUN TIME: 0 days 0 hours 0 minutes 17 seconds 980 msec
