                         Program Version 4.0.0.2 - RELEASE -
|  1> ! WB97X-D3 6-31G(d) VerySlowConv
|  2> ! KDIIS NOSOSCF
|  3> %base "Scan_44"
|  4>
|  5> %scf
|  6> maxiter 999
|  7> end
|  8>
|  9> * xyz 0 1
| 10> C          5.058387719904   -2.556103038182    0.144696290118
| 11> H          4.972378111127   -3.665044563640    0.119144449690
| 12> C          2.427374229571    1.570022421188   -0.044715763162
| 13> H          3.356379180006    0.959943918191    0.005566582557
| 14> C         -2.465221545459    1.361908315945   -0.091705577081
| 15> H         -1.464657075243    1.847518255951   -0.120439013379
| 16> C         -4.810434805245   -2.930816323375    0.143828035914
| 17> H         -4.721509071378   -1.822076054590    0.119299543634
| 18> C         -2.161725952815   -7.046299424200   -0.029857710336
| 19> H         -3.092317321926   -6.439014355583    0.024593384674
| 20> C          2.730984728796   -6.856709221500   -0.121736307861
| 21> H          1.728971802677   -7.339439930197   -0.148673914707
| 22> **                         ****END OF INPUT****

CARTESIAN COORDINATES (ANGSTROEM)
---------------------------------
  C      5.058388   -2.556103    0.144696
  H      4.972378   -3.665045    0.119144
  C      2.427374    1.570022   -0.044716
  H      3.356379    0.959944    0.005567
  C     -2.465222    1.361908   -0.091706
  H     -1.464657    1.847518   -0.120439
  C     -4.810435   -2.930816    0.143828
  H     -4.721509   -1.822076    0.119300
  C     -2.161726   -7.046299   -0.029858
  H     -3.092317   -6.439014    0.024593
  C      2.730985   -6.856709   -0.121736
  H      1.728972   -7.339440   -0.148674

 Total Charge           Charge          ....    0
 Multiplicity           Mult            ....    1
 Number of Electrons    NEL             ....   42
 Basis Dimension        Dim             ....   96

ORBITAL ENERGIES
----------------

  NO   OCC          E(Eh)            E(eV)
   0   2.0000     -10.391085      -282.7558
   1   2.0000     -10.390983      -282.7530
   2   2.0000     -10.390908      -282.7510
   3   2.0000     -10.390848      -282.7494
   4   2.0000     -10.390771      -282.7473
   5   2.0000     -10.390767      -282.7471
   6   2.0000      -0.738191       -20.0872
   7   2.0000      -0.737777       -20.0759
   8   2.0000      -0.737588       -20.0708
   9   2.0000      -0.736555       -20.0427
  10   2.0000      -0.736384       -20.0380
  11   2.0000      -0.735979       -20.0270
  12   2.0000      -0.405847       -11.0437
  13   2.0000      -0.404152       -10.9975
  14   2.0000      -0.404007       -10.9936
  15   2.0000      -0.400567       -10.9000
  16   2.0000      -0.400342       -10.8939
  17   2.0000      -0.398525       -10.8444
  18   2.0000      -0.226120        -6.1530
  19   2.0000      -0.207909        -5.6575
  20   2.0000      -0.207725        -5.6525
  21   0.0000      -0.116791        -3.1781
  22   0.0000      -0.116587        -3.1725
  23   0.0000      -0.098458        -2.6792
  24   0.0000      -0.030209        -0.8220
  25   0.0000      -0.030070        -0.8182

MULLIKEN ATOMIC CHARGES
-----------------------
   0 C :   -0.163889
   1 H :    0.164959
   2 C :   -0.166427
   3 H :    0.165739
   4 C :   -0.166355
   5 H :    0.166036
   6 C :   -0.164040
   7 H :    0.165014
   8 C :   -0.166330
   9 H :    0.165731
  10 C :   -0.166509
  11 H :    0.166071
Sum of atomic charges:   -0.0000000

LOEWDIN ATOMIC CHARGES
----------------------
   0 C :   -0.112304
   1 H :    0.113369
   2 C :   -0.114430
   3 H :    0.113730
   4 C :   -0.114179
   5 H :    0.113881
   6 C :   -0.112441
   7 H :    0.113402
   8 C :   -0.114331
   9 H :    0.113728
  10 C :   -0.114331
  11 H :    0.113906

  Mayer bond orders larger than 0.1
B(  0-C ,  1-H ) :   0.9044 B(  0-C ,  2-C ) :   0.4498 B(  0-C ,  6-C ) :   0.1078
B(  0-C , 10-C ) :   0.4410 B(  2-C ,  3-H ) :   0.9042 B(  2-C ,  4-C ) :   0.4387
B(  2-C ,  8-C ) :   0.1100 B(  4-C ,  5-H ) :   0.9040 B(  4-C ,  6-C ) :   0.4447
B(  4-C , 10-C ) :   0.1152 B(  6-C ,  7-H ) :   0.9044 B(  6-C ,  8-C ) :   0.4461
B(  8-C ,  9-H ) :   0.9042 B(  8-C , 10-C ) :   0.4424 B( 10-C , 11-H ) :   0.9040

Dispersion correction           -0.001091895
FINAL SINGLE POINT ENERGY      -230.376262687626

DIPOLE MOMENT
-------------
                                X             Y             Z
Electronic contribution:     -0.00012       0.00040       0.00179
Nuclear contribution   :     -0.00010      -0.00010      -0.00088
                        -----------------------------------------
Total Dipole Moment    :     -0.00022       0.00030       0.00091
                        -----------------------------------------
Magnitude (a.u.)       :      0.00099
Magnitude (Debye)      :      0.00251

                             ****ORCA TERMINATED NORMALLY****
TOTAL RUN TIME: 0 days 0 hours 0 minutes 17 seconds 780 msec
