                         Program Version 4.0.0.2 - RELEASE -
|  1> ! WB97X-D3 6-31G(d) VerySlowConv
|  2> ! KDIIS NOSOSCF
|  3> %base "Scan_45"
|  4>
|  5> %scf
|  6> maxiter 999
|  7> end
|  8>
|  9> * xyz 0 1
| 10> C          5.161745782144   -2.563857004239    0.148609679617
| 11> H          5.074988866418   -3.672766818618    0.122517452795
| 12> C          2.485648897362    1.654751920549   -0.044844521633
| 13> H          3.414244213368    1.044001656658    0.005768758621
| 14> C         -2.509607382040    1.453735015766   -0.095620386336
| 15> H         -1.508679253433    1.938688614841   -0.124316771803
| 16> C         -4.913742969962   -2.923042552436    0.148303760898
| 17> H         -4.824104567783   -1.814326952540    0.123471875959
| 18> C         -2.219999718211   -7.131065100996   -0.030243580435
| 19> H         -3.150156290389   -6.523051766172    0.024353105910
| 20> C          2.775311595268   -6.948520250647   -0.125665217625
| 21> H          1.772960827264   -7.430656762156   -0.152334155917
| 22> **                         ****END OF INPUT****

CARTESIAN COORDINATES (ANGSTROEM)
---------------------------------
  C      5.161746   -2.563857    0.148610
  H      5.074989   -3.672767    0.122517
  C      2.485649    1.654752   -0.044845
  H      3.414244    1.044002    0.005769
  C     -2.509607    1.453735   -0.095620
  H     -1.508679    1.938689   -0.124317
  C     -4.913743   -2.923043    0.148304
  H     -4.824105   -1.814327    0.123472
  C     -2.220000   -7.131065   -0.030244
  H     -3.150156   -6.523052    0.024353
  C      2.775312   -6.948520   -0.125665
  H      1.772961   -7.430657   -0.152334

 Total Charge           Charge          ....    0
 Multiplicity           Mult            ....    1
 Number of Electrons    NEL             ....   42
 Basis Dimension        Dim             ....   96

ORBITAL ENERGIES
----------------

  NO   OCC          E(Eh)            E(eV)
   0   2.0000     -10.390865      -282.7498
   1   2.0000     -10.390788      -282.7477
   2   2.0000     -10.390739      -282.7464
   3   2.0000     -10.390716      -282.7457
   4   2.0000     -10.390652      -282.7440
   5   2.0000     -10.390562      -282.7416
   6   2.0000      -0.738126       -20.0854
   7   2.0000      -0.737759       -20.0754
   8   2.0000      -0.737604       -20.0712
   9   2.0000      -0.736675       -20.0459
  10   2.0000      -0.736535       -20.0421
  11   2.0000      -0.736175       -20.0323
  12   2.0000      -0.405159       -11.0249
  13   2.0000      -0.403751       -10.9866
  14   2.0000      -0.403625       -10.9832
  15   2.0000      -0.400786       -10.9059
  16   2.0000      -0.400587       -10.9005
  17   2.0000      -0.399090       -10.8598
  18   2.0000      -0.224585        -6.1113
  19   2.0000      -0.206771        -5.6265
  20   2.0000      -0.206734        -5.6255
  21   0.0000      -0.117730        -3.2036
  22   0.0000      -0.117631        -3.2009
  23   0.0000      -0.099897        -2.7183
  24   0.0000      -0.030069        -0.8182
  25   0.0000      -0.029964        -0.8154

MULLIKEN ATOMIC CHARGES
-----------------------
   0 C :   -0.162510
   1 H :    0.163521
   2 C :   -0.165126
   3 H :    0.164371
   4 C :   -0.165038
   5 H :    0.164827
   6 C :   -0.162697
   7 H :    0.163591
   8 C :   -0.164946
   9 H :    0.164336
  10 C :   -0.165185
  11 H :    0.164853
Sum of atomic charges:   -0.0000000

LOEWDIN ATOMIC CHARGES
----------------------
   0 C :   -0.111590
   1 H :    0.112598
   2 C :   -0.113752
   3 H :    0.112988
   4 C :   -0.113383
   5 H :    0.113189
   6 C :   -0.111753
   7 H :    0.112638
   8 C :   -0.113581
   9 H :    0.112967
  10 C :   -0.113530
  11 H :    0.113209

  Mayer bond orders larger than 0.1
B(  0-C ,  1-H ) :   0.9049 B(  0-C ,  2-C ) :   0.4470 B(  0-C ,  6-C ) :   0.1092
B(  0-C , 10-C ) :   0.4427 B(  2-C ,  3-H ) :   0.9047 B(  2-C ,  4-C ) :   0.4402
B(  2-C ,  8-C ) :   0.1117 B(  4-C ,  5-H ) :   0.9044 B(  4-C ,  6-C ) :   0.4466
B(  4-C , 10-C ) :   0.1122 B(  6-C ,  7-H ) :   0.9048 B(  6-C ,  8-C ) :   0.4431
B(  8-C ,  9-H ) :   0.9047 B(  8-C , 10-C ) :   0.4441 B( 10-C , 11-H ) :   0.9044

Dispersion correction           -0.000971417
FINAL SINGLE POINT ENERGY      -230.371354234189

DIPOLE MOMENT
-------------
                                X             Y             Z
Electronic contribution:     -0.00013      -0.00003       0.00166
Nuclear contribution   :     -0.00009      -0.00010      -0.00093
                        -----------------------------------------
Total Dipole Moment    :     -0.00022      -0.00012       0.00072
                        -----------------------------------------
Magnitude (a.u.)       :      0.00076
Magnitude (Debye)      :      0.00194

                             ****ORCA TERMINATED NORMALLY****
TOTAL RUN TIME: 0 days 0 hours 0 minutes 19 seconds 127 msec
