                         Program Version 4.0.0.2 - RELEASE -
|  1> ! WB97X-D3 6-31G(d) VerySlowConv
|  2> ! KDIIS NOSOSCF
|  3> %base "Scan_5"
|  4>
|  5> %scf
|  6> maxiter 999
|  7> end
|  8>
|  9> * xyz 0 1
| 10> C          1.342683957605   -2.835856290191   -0.000000000000
| 11> H          2.440782617184   -2.919922350699    0.000000000000
| 12> C          0.816692028353   -1.739117301497   -0.000000000000
| 13> H          1.438544703428   -0.830168997015   -0.000000000000
| 14> C         -0.396107761317   -1.646270175374   -0.000000000000
| 15> H         -0.872353745283   -0.653255809377   -0.000000000000
| 16> C         -1.082915624274   -2.650162043143   -0.000000000000
| 17> H         -2.181014283851   -2.566095982631   -0.000000000000
| 18> C         -0.556923695019   -3.746901031834   -0.000000000000
| 19> H         -1.178776370091   -4.655849336320   -0.000000000000
| 20> C          0.655876094651   -3.839748157961   -0.000000000000
| 21> H          1.132122078613   -4.832762523959    0.000000000000
| 22> **                         ****END OF INPUT****

CARTESIAN COORDINATES (ANGSTROEM)
---------------------------------
  C      1.342684   -2.835856   -0.000000
  H      2.440783   -2.919922    0.000000
  C      0.816692   -1.739117   -0.000000
  H      1.438545   -0.830169   -0.000000
  C     -0.396108   -1.646270   -0.000000
  H     -0.872354   -0.653256   -0.000000
  C     -1.082916   -2.650162   -0.000000
  H     -2.181014   -2.566096   -0.000000
  C     -0.556924   -3.746901   -0.000000
  H     -1.178776   -4.655849   -0.000000
  C      0.655876   -3.839748   -0.000000
  H      1.132122   -4.832763    0.000000

 Total Charge           Charge          ....    0
 Multiplicity           Mult            ....    1
 Number of Electrons    NEL             ....   42
 Basis Dimension        Dim             ....   96

ORBITAL ENERGIES
----------------

  NO   OCC          E(Eh)            E(eV)
   0   2.0000     -10.237805      -278.5848
   1   2.0000     -10.236861      -278.5592
   2   2.0000     -10.236695      -278.5546
   3   2.0000     -10.234775      -278.5024
   4   2.0000     -10.234611      -278.4979
   5   2.0000     -10.233712      -278.4735
   6   2.0000      -1.069004       -29.0891
   7   2.0000      -0.896395       -24.3921
   8   2.0000      -0.896327       -24.3903
   9   2.0000      -0.724709       -19.7203
  10   2.0000      -0.724520       -19.7152
  11   2.0000      -0.669513       -18.2184
  12   2.0000      -0.590782       -16.0760
  13   2.0000      -0.538633       -14.6570
  14   2.0000      -0.522901       -14.2289
  15   2.0000      -0.522725       -14.2241
  16   2.0000      -0.507047       -13.7975
  17   2.0000      -0.411891       -11.2081
  18   2.0000      -0.411495       -11.1974
  19   2.0000      -0.362939        -9.8761
  20   2.0000      -0.362713        -9.8699
  21   0.0000       0.128995         3.5101
  22   0.0000       0.129268         3.5176
  23   0.0000       0.160724         4.3735
  24   0.0000       0.229729         6.2513
  25   0.0000       0.230304         6.2669

MULLIKEN ATOMIC CHARGES
-----------------------
   0 C :   -0.148959
   1 H :    0.147411
   2 C :   -0.144458
   3 H :    0.145918
   4 C :   -0.144426
   5 H :    0.144514
   6 C :   -0.148959
   7 H :    0.147411
   8 C :   -0.144457
   9 H :    0.145918
  10 C :   -0.144427
  11 H :    0.144514
Sum of atomic charges:   -0.0000000

LOEWDIN ATOMIC CHARGES
----------------------
   0 C :   -0.130328
   1 H :    0.130188
   2 C :   -0.130101
   3 H :    0.130130
   4 C :   -0.129836
   5 H :    0.129947
   6 C :   -0.130328
   7 H :    0.130188
   8 C :   -0.130101
   9 H :    0.130130
  10 C :   -0.129836
  11 H :    0.129947

  Mayer bond orders larger than 0.1
B(  0-C ,  1-H ) :   0.9172 B(  0-C ,  2-C ) :   1.5112 B(  0-C , 10-C ) :   1.5133
B(  2-C ,  3-H ) :   0.9178 B(  2-C ,  4-C ) :   1.5118 B(  4-C ,  5-H ) :   0.9181
B(  4-C ,  6-C ) :   1.5133 B(  6-C ,  7-H ) :   0.9172 B(  6-C ,  8-C ) :   1.5112
B(  8-C ,  9-H ) :   0.9178 B(  8-C , 10-C ) :   1.5118 B( 10-C , 11-H ) :   0.9181

Dispersion correction           -0.001954563
FINAL SINGLE POINT ENERGY      -231.926208452099

DIPOLE MOMENT
-------------
                                X             Y             Z
Electronic contribution:     -0.00000       0.00000       0.00000
Nuclear contribution   :      0.00000      -0.00000       0.00000
                        -----------------------------------------
Total Dipole Moment    :     -0.00000       0.00000       0.00000
                        -----------------------------------------
Magnitude (a.u.)       :      0.00000
Magnitude (Debye)      :      0.00000

                             ****ORCA TERMINATED NORMALLY****
TOTAL RUN TIME: 0 days 0 hours 0 minutes 52 seconds 138 msec
