                         Program Version 4.0.0.2 - RELEASE -
|  1> ! WB97X-D3 6-31G(d) VerySlowConv
|  2> ! KDIIS NOSOSCF
|  3> %base "Scan_6"
|  4>
|  5> %scf
|  6> maxiter 999
|  7> end
|  8>
|  9> * xyz 0 1
| 10> C          1.371370466820   -2.838052415311   -0.000000000000
| 11> H          2.464669854619   -2.921751063111    0.000000000000
| 12> C          0.832937184146   -1.715372116932   -0.000000000000
| 13> H          1.452072034031   -0.810396397454   -0.000000000000
| 14> C         -0.408549116053   -1.620328867940   -0.000000000000
| 15> H         -0.882713653706   -0.631654499852   -0.000000000000
| 16> C         -1.111602133488   -2.647965918022   -0.000000000000
| 17> H         -2.204901521286   -2.564267270222   -0.000000000000
| 18> C         -0.573168850812   -3.770646216401   -0.000000000000
| 19> H         -1.192303700697   -4.675621935879   -0.000000000000
| 20> C          0.668317449387   -3.865689465394   -0.000000000000
| 21> H          1.142481987039   -4.854363833482    0.000000000000
| 22> **                         ****END OF INPUT****

CARTESIAN COORDINATES (ANGSTROEM)
---------------------------------
  C      1.371370   -2.838052   -0.000000
  H      2.464670   -2.921751    0.000000
  C      0.832937   -1.715372   -0.000000
  H      1.452072   -0.810396   -0.000000
  C     -0.408549   -1.620329   -0.000000
  H     -0.882714   -0.631654   -0.000000
  C     -1.111602   -2.647966   -0.000000
  H     -2.204902   -2.564267   -0.000000
  C     -0.573169   -3.770646   -0.000000
  H     -1.192304   -4.675622   -0.000000
  C      0.668317   -3.865689   -0.000000
  H      1.142482   -4.854364    0.000000

 Total Charge           Charge          ....    0
 Multiplicity           Mult            ....    1
 Number of Electrons    NEL             ....   42
 Basis Dimension        Dim             ....   96

ORBITAL ENERGIES
----------------

  NO   OCC          E(Eh)            E(eV)
   0   2.0000     -10.244667      -278.7716
   1   2.0000     -10.243939      -278.7517
   2   2.0000     -10.243792      -278.7478
   3   2.0000     -10.242303      -278.7072
   4   2.0000     -10.242161      -278.7034
   5   2.0000     -10.241472      -278.6846
   6   2.0000      -1.049932       -28.5701
   7   2.0000      -0.890059       -24.2197
   8   2.0000      -0.889985       -24.2177
   9   2.0000      -0.721269       -19.6267
  10   2.0000      -0.721104       -19.6222
  11   2.0000      -0.661698       -18.0057
  12   2.0000      -0.581645       -15.8274
  13   2.0000      -0.524337       -14.2679
  14   2.0000      -0.521876       -14.2010
  15   2.0000      -0.521691       -14.1959
  16   2.0000      -0.516773       -14.0621
  17   2.0000      -0.416229       -11.3262
  18   2.0000      -0.415847       -11.3158
  19   2.0000      -0.356999        -9.7144
  20   2.0000      -0.356785        -9.7086
  21   0.0000       0.120768         3.2863
  22   0.0000       0.121022         3.2932
  23   0.0000       0.165501         4.5035
  24   0.0000       0.232346         6.3224
  25   0.0000       0.232915         6.3379

MULLIKEN ATOMIC CHARGES
-----------------------
   0 C :   -0.152943
   1 H :    0.151452
   2 C :   -0.148659
   3 H :    0.150049
   4 C :   -0.148551
   5 H :    0.148652
   6 C :   -0.152942
   7 H :    0.151452
   8 C :   -0.148659
   9 H :    0.150049
  10 C :   -0.148550
  11 H :    0.148652
Sum of atomic charges:   -0.0000000

LOEWDIN ATOMIC CHARGES
----------------------
   0 C :   -0.132005
   1 H :    0.131845
   2 C :   -0.131792
   3 H :    0.131805
   4 C :   -0.131508
   5 H :    0.131655
   6 C :   -0.132005
   7 H :    0.131845
   8 C :   -0.131792
   9 H :    0.131805
  10 C :   -0.131508
  11 H :    0.131655

  Mayer bond orders larger than 0.1
B(  0-C ,  1-H ) :   0.9218 B(  0-C ,  2-C ) :   1.5009 B(  0-C , 10-C ) :   1.5028
B(  2-C ,  3-H ) :   0.9224 B(  2-C ,  4-C ) :   1.5012 B(  4-C ,  5-H ) :   0.9228
B(  4-C ,  6-C ) :   1.5028 B(  6-C ,  7-H ) :   0.9218 B(  6-C ,  8-C ) :   1.5009
B(  8-C ,  9-H ) :   0.9224 B(  8-C , 10-C ) :   1.5012 B( 10-C , 11-H ) :   0.9228

Dispersion correction           -0.002032351
FINAL SINGLE POINT ENERGY      -232.009698867520

DIPOLE MOMENT
-------------
                                X             Y             Z
Electronic contribution:      0.00000       0.00000       0.00000
Nuclear contribution   :     -0.00000      -0.00000       0.00000
                        -----------------------------------------
Total Dipole Moment    :      0.00000       0.00000       0.00000
                        -----------------------------------------
Magnitude (a.u.)       :      0.00000
Magnitude (Debye)      :      0.00000

                             ****ORCA TERMINATED NORMALLY****
TOTAL RUN TIME: 0 days 0 hours 0 minutes 45 seconds 998 msec
