                         Program Version 4.0.0.2 - RELEASE -
|  1> ! WB97X-D3 6-31G(d) VerySlowConv
|  2> ! KDIIS NOSOSCF
|  3> %base "Scan_7"
|  4>
|  5> %scf
|  6> maxiter 999
|  7> end
|  8>
|  9> * xyz 0 1
| 10> C          1.403194289765   -2.840488720769   -0.000000000000
| 11> H          2.491841333126   -2.923831204128    0.000000000000
| 12> C          0.850958996759   -1.689030031894   -0.000000000000
| 13> H          1.467459226525   -0.787905278131   -0.000000000000
| 14> C         -0.422351125395   -1.591550476699   -0.000000000000
| 15> H         -0.894497939137   -0.607083239617   -0.000000000000
| 16> C         -1.143425956432   -2.645529612564   -0.000000000000
| 17> H         -2.232072999792   -2.562187129205   -0.000000000000
| 18> C         -0.591190663425   -3.796988301439   -0.000000000000
| 19> H         -1.207690893191   -4.698113055202   -0.000000000000
| 20> C          0.682119458729   -3.894467856634   -0.000000000000
| 21> H          1.154266272470   -4.878935093716    0.000000000000
| 22> **                         ****END OF INPUT****

CARTESIAN COORDINATES (ANGSTROEM)
---------------------------------
  C      1.403194   -2.840489   -0.000000
  H      2.491841   -2.923831    0.000000
  C      0.850959   -1.689030   -0.000000
  H      1.467459   -0.787905   -0.000000
  C     -0.422351   -1.591550   -0.000000
  H     -0.894498   -0.607083   -0.000000
  C     -1.143426   -2.645530   -0.000000
  H     -2.232073   -2.562187   -0.000000
  C     -0.591191   -3.796988   -0.000000
  H     -1.207691   -4.698113   -0.000000
  C      0.682119   -3.894468   -0.000000
  H      1.154266   -4.878935    0.000000

 Total Charge           Charge          ....    0
 Multiplicity           Mult            ....    1
 Number of Electrons    NEL             ....   42
 Basis Dimension        Dim             ....   96

ORBITAL ENERGIES
----------------

  NO   OCC          E(Eh)            E(eV)
   0   2.0000     -10.252643      -278.9886
   1   2.0000     -10.252103      -278.9739
   2   2.0000     -10.251969      -278.9703
   3   2.0000     -10.250849      -278.9398
   4   2.0000     -10.250722      -278.9363
   5   2.0000     -10.250213      -278.9225
   6   2.0000      -1.030049       -28.0291
   7   2.0000      -0.882913       -24.0253
   8   2.0000      -0.882837       -24.0232
   9   2.0000      -0.717702       -19.5297
  10   2.0000      -0.717563       -19.5259
  11   2.0000      -0.653375       -17.7792
  12   2.0000      -0.571754       -15.5582
  13   2.0000      -0.527134       -14.3440
  14   2.0000      -0.520603       -14.1663
  15   2.0000      -0.520411       -14.1611
  16   2.0000      -0.509585       -13.8665
  17   2.0000      -0.420509       -11.4426
  18   2.0000      -0.420148       -11.4328
  19   2.0000      -0.350821        -9.5463
  20   2.0000      -0.350618        -9.5408
  21   0.0000       0.111989         3.0474
  22   0.0000       0.112222         3.0537
  23   0.0000       0.170257         4.6329
  24   0.0000       0.234912         6.3923
  25   0.0000       0.235471         6.4075

MULLIKEN ATOMIC CHARGES
-----------------------
   0 C :   -0.156906
   1 H :    0.155486
   2 C :   -0.152882
   3 H :    0.154181
   4 C :   -0.152681
   5 H :    0.152803
   6 C :   -0.156906
   7 H :    0.155486
   8 C :   -0.152882
   9 H :    0.154181
  10 C :   -0.152681
  11 H :    0.152803
Sum of atomic charges:    0.0000000

LOEWDIN ATOMIC CHARGES
----------------------
   0 C :   -0.133686
   1 H :    0.133509
   2 C :   -0.133482
   3 H :    0.133486
   4 C :   -0.133202
   5 H :    0.133375
   6 C :   -0.133686
   7 H :    0.133509
   8 C :   -0.133482
   9 H :    0.133486
  10 C :   -0.133202
  11 H :    0.133375

  Mayer bond orders larger than 0.1
B(  0-C ,  1-H ) :   0.9259 B(  0-C ,  2-C ) :   1.4904 B(  0-C , 10-C ) :   1.4919
B(  2-C ,  3-H ) :   0.9264 B(  2-C ,  4-C ) :   1.4904 B(  4-C ,  5-H ) :   0.9268
B(  4-C ,  6-C ) :   1.4919 B(  6-C ,  7-H ) :   0.9259 B(  6-C ,  8-C ) :   1.4904
B(  8-C ,  9-H ) :   0.9264 B(  8-C , 10-C ) :   1.4904 B( 10-C , 11-H ) :   0.9268

Dispersion correction           -0.002107470
FINAL SINGLE POINT ENERGY      -232.078716786783

DIPOLE MOMENT
-------------
                                X             Y             Z
Electronic contribution:      0.00000       0.00000      -0.00000
Nuclear contribution   :      0.00000       0.00000       0.00000
                        -----------------------------------------
Total Dipole Moment    :      0.00000       0.00000      -0.00000
                        -----------------------------------------
Magnitude (a.u.)       :      0.00000
Magnitude (Debye)      :      0.00000

                             ****ORCA TERMINATED NORMALLY****
TOTAL RUN TIME: 0 days 0 hours 0 minutes 46 seconds 734 msec
