                         Program Version 4.0.0.2 - RELEASE -
|  1> ! WB97X-D3 6-31G(d) VerySlowConv
|  2> ! KDIIS NOSOSCF
|  3> %base "Scan_8"
|  4>
|  5> %scf
|  6> maxiter 999
|  7> end
|  8>
|  9> * xyz 0 1
| 10> C          1.439495263127   -2.843267778527    0.000000000000
| 11> H          2.523748066458   -2.926273858075    0.000000000000
| 12> C          0.871516219183   -1.658981994185   -0.000000000000
| 13> H          1.485527991608   -0.761494560127   -0.000000000000
| 14> C         -0.438094876877   -1.558723382202   -0.000000000000
| 15> H         -0.908335904559   -0.578229870411   -0.000000000000
| 16> C         -1.179726929812   -2.642750555053   -0.000000000000
| 17> H         -2.263979733422   -2.559744479139   -0.000000000000
| 18> C         -0.611747886054   -3.827036339008   -0.000000000000
| 19> H         -1.225759661487   -4.724523771009   -0.000000000000
| 20> C          0.697863210434   -3.927294951025   -0.000000000000
| 21> H          1.168104241401   -4.907788461240    0.000000000000
| 22> **                         ****END OF INPUT****

CARTESIAN COORDINATES (ANGSTROEM)
---------------------------------
  C      1.439495   -2.843268    0.000000
  H      2.523748   -2.926274    0.000000
  C      0.871516   -1.658982   -0.000000
  H      1.485528   -0.761495   -0.000000
  C     -0.438095   -1.558723   -0.000000
  H     -0.908336   -0.578230   -0.000000
  C     -1.179727   -2.642751   -0.000000
  H     -2.263980   -2.559744   -0.000000
  C     -0.611748   -3.827036   -0.000000
  H     -1.225760   -4.724524   -0.000000
  C      0.697863   -3.927295   -0.000000
  H      1.168104   -4.907788    0.000000

 Total Charge           Charge          ....    0
 Multiplicity           Mult            ....    1
 Number of Electrons    NEL             ....   42
 Basis Dimension        Dim             ....   96

ORBITAL ENERGIES
----------------

  NO   OCC          E(Eh)            E(eV)
   0   2.0000     -10.262045      -279.2444
   1   2.0000     -10.261671      -279.2343
   2   2.0000     -10.261541      -279.2307
   3   2.0000     -10.260737      -279.2089
   4   2.0000     -10.260618      -279.2056
   5   2.0000     -10.260261      -279.1959
   6   2.0000      -1.008840       -27.4519
   7   2.0000      -0.874679       -23.8012
   8   2.0000      -0.874608       -23.7993
   9   2.0000      -0.713949       -19.4275
  10   2.0000      -0.713836       -19.4245
  11   2.0000      -0.644234       -17.5305
  12   2.0000      -0.560762       -15.2591
  13   2.0000      -0.538361       -14.6495
  14   2.0000      -0.518970       -14.1219
  15   2.0000      -0.518771       -14.1165
  16   2.0000      -0.494033       -13.4433
  17   2.0000      -0.424676       -11.5560
  18   2.0000      -0.424350       -11.5471
  19   2.0000      -0.344249        -9.3675
  20   2.0000      -0.344055        -9.3622
  21   0.0000       0.102407         2.7866
  22   0.0000       0.102616         2.7923
  23   0.0000       0.175030         4.7628
  24   0.0000       0.237417         6.4605
  25   0.0000       0.237960         6.4752

MULLIKEN ATOMIC CHARGES
-----------------------
   0 C :   -0.160968
   1 H :    0.159633
   2 C :   -0.157284
   3 H :    0.158440
   4 C :   -0.156903
   5 H :    0.157080
   6 C :   -0.160968
   7 H :    0.159633
   8 C :   -0.157284
   9 H :    0.158440
  10 C :   -0.156903
  11 H :    0.157080
Sum of atomic charges:   -0.0000000

LOEWDIN ATOMIC CHARGES
----------------------
   0 C :   -0.135411
   1 H :    0.135220
   2 C :   -0.135222
   3 H :    0.135219
   4 C :   -0.134944
   5 H :    0.135139
   6 C :   -0.135411
   7 H :    0.135220
   8 C :   -0.135222
   9 H :    0.135219
  10 C :   -0.134944
  11 H :    0.135139

  Mayer bond orders larger than 0.1
B(  0-C ,  1-H ) :   0.9292 B(  0-C ,  2-C ) :   1.4792 B(  0-C , 10-C ) :   1.4805
B(  2-C ,  3-H ) :   0.9297 B(  2-C ,  4-C ) :   1.4791 B(  4-C ,  5-H ) :   0.9302
B(  4-C ,  6-C ) :   1.4805 B(  6-C ,  7-H ) :   0.9292 B(  6-C ,  8-C ) :   1.4792
B(  8-C ,  9-H ) :   0.9297 B(  8-C , 10-C ) :   1.4791 B( 10-C , 11-H ) :   0.9302

Dispersion correction           -0.002146362
FINAL SINGLE POINT ENERGY      -232.131677227671

DIPOLE MOMENT
-------------
                                X             Y             Z
Electronic contribution:     -0.00000       0.00000      -0.00000
Nuclear contribution   :     -0.00000      -0.00000       0.00000
                        -----------------------------------------
Total Dipole Moment    :     -0.00000       0.00000      -0.00000
                        -----------------------------------------
Magnitude (a.u.)       :      0.00000
Magnitude (Debye)      :      0.00000

                             ****ORCA TERMINATED NORMALLY****
TOTAL RUN TIME: 0 days 0 hours 0 minutes 45 seconds 543 msec
