                         Program Version 4.0.0.2 - RELEASE -
|  1> ! WB97X-D3 6-31G(d) VerySlowConv
|  2> ! KDIIS NOSOSCF
|  3> %base "Scan_9"
|  4>
|  5> %scf
|  6> maxiter 999
|  7> end
|  8>
|  9> * xyz 0 1
| 10> C          1.480828128662   -2.846432058012   -0.000000000000
| 11> H          2.560813866188   -2.929111464859    0.000000000000
| 12> C          0.894922998853   -1.624768821819   -0.000000000000
| 13> H          1.506518336565   -0.730813442405   -0.000000000000
| 14> C         -0.456020963330   -1.521345930300   -0.000000000000
| 15> H         -0.924411365185   -0.544711142450   -0.000000000000
| 16> C         -1.221059795321   -2.639586275219   -0.000000000000
| 17> H         -2.301045532599   -2.556906865131   -0.000000000000
| 18> C         -0.635154665435   -3.861249511571   -0.000000000000
| 19> H         -1.246750000465   -4.755204892821   -0.000000000000
| 20> C          0.715789296571   -3.964672403077    0.000000000000
| 21> H          1.184179695495   -4.941307192334    0.000000000000
| 22> **                         ****END OF INPUT****

CARTESIAN COORDINATES (ANGSTROEM)
---------------------------------
  C      1.480828   -2.846432   -0.000000
  H      2.560814   -2.929111    0.000000
  C      0.894923   -1.624769   -0.000000
  H      1.506518   -0.730813   -0.000000
  C     -0.456021   -1.521346   -0.000000
  H     -0.924411   -0.544711   -0.000000
  C     -1.221060   -2.639586   -0.000000
  H     -2.301046   -2.556907   -0.000000
  C     -0.635155   -3.861250   -0.000000
  H     -1.246750   -4.755205   -0.000000
  C      0.715789   -3.964672    0.000000
  H      1.184180   -4.941307    0.000000

 Total Charge           Charge          ....    0
 Multiplicity           Mult            ....    1
 Number of Electrons    NEL             ....   42
 Basis Dimension        Dim             ....   96

ORBITAL ENERGIES
----------------

  NO   OCC          E(Eh)            E(eV)
   0   2.0000     -10.272865      -279.5389
   1   2.0000     -10.272623      -279.5323
   2   2.0000     -10.272506      -279.5291
   3   2.0000     -10.271952      -279.5140
   4   2.0000     -10.271847      -279.5112
   5   2.0000     -10.271609      -279.5047
   6   2.0000      -0.986433       -26.8422
   7   2.0000      -0.865335       -23.5470
   8   2.0000      -0.865270       -23.5452
   9   2.0000      -0.710142       -19.3239
  10   2.0000      -0.710055       -19.3216
  11   2.0000      -0.634286       -17.2598
  12   2.0000      -0.550500       -14.9799
  13   2.0000      -0.548563       -14.9272
  14   2.0000      -0.516919       -14.0661
  15   2.0000      -0.516729       -14.0609
  16   2.0000      -0.477766       -13.0007
  17   2.0000      -0.428515       -11.6605
  18   2.0000      -0.428248       -11.6532
  19   2.0000      -0.337289        -9.1781
  20   2.0000      -0.337112        -9.1733
  21   0.0000       0.092049         2.5048
  22   0.0000       0.092231         2.5097
  23   0.0000       0.179857         4.8941
  24   0.0000       0.239882         6.5275
  25   0.0000       0.240411         6.5419

MULLIKEN ATOMIC CHARGES
-----------------------
   0 C :   -0.165078
   1 H :    0.163885
   2 C :   -0.161878
   3 H :    0.162833
   4 C :   -0.161269
   5 H :    0.161508
   6 C :   -0.165079
   7 H :    0.163885
   8 C :   -0.161878
   9 H :    0.162833
  10 C :   -0.161269
  11 H :    0.161508
Sum of atomic charges:    0.0000000

LOEWDIN ATOMIC CHARGES
----------------------
   0 C :   -0.137185
   1 H :    0.136986
   2 C :   -0.137035
   3 H :    0.137020
   4 C :   -0.136755
   5 H :    0.136967
   6 C :   -0.137185
   7 H :    0.136986
   8 C :   -0.137035
   9 H :    0.137020
  10 C :   -0.136755
  11 H :    0.136967

  Mayer bond orders larger than 0.1
B(  0-C ,  1-H ) :   0.9316 B(  0-C ,  2-C ) :   1.4676 B(  0-C , 10-C ) :   1.4688
B(  2-C ,  3-H ) :   0.9320 B(  2-C ,  4-C ) :   1.4675 B(  4-C ,  5-H ) :   0.9325
B(  4-C ,  6-C ) :   1.4688 B(  6-C ,  7-H ) :   0.9316 B(  6-C ,  8-C ) :   1.4676
B(  8-C ,  9-H ) :   0.9320 B(  8-C , 10-C ) :   1.4675 B( 10-C , 11-H ) :   0.9325

Dispersion correction           -0.002155971
FINAL SINGLE POINT ENERGY      -232.164226124823

DIPOLE MOMENT
-------------
                                X             Y             Z
Electronic contribution:     -0.00000      -0.00000      -0.00000
Nuclear contribution   :     -0.00000      -0.00000       0.00000
                        -----------------------------------------
Total Dipole Moment    :     -0.00000      -0.00000      -0.00000
                        -----------------------------------------
Magnitude (a.u.)       :      0.00000
Magnitude (Debye)      :      0.00000

                             ****ORCA TERMINATED NORMALLY****
TOTAL RUN TIME: 0 days 0 hours 1 minutes 6 seconds 777 msec
